# vtk DataFile Version 4.2
Velocity and Pressure Data
ASCII
DATASET STRUCTURED_GRID
DIMENSIONS 128 128 1
POINTS 16384 float
0.00000000 0.00000000 0.0
0.00787402 0.00000000 0.0
0.01574803 0.00000000 0.0
0.02362205 0.00000000 0.0
0.03149606 0.00000000 0.0
0.03937008 0.00000000 0.0
0.04724409 0.00000000 0.0
0.05511811 0.00000000 0.0
0.06299213 0.00000000 0.0
0.07086614 0.00000000 0.0
0.07874016 0.00000000 0.0
0.08661417 0.00000000 0.0
0.09448819 0.00000000 0.0
0.10236220 0.00000000 0.0
0.11023622 0.00000000 0.0
0.11811024 0.00000000 0.0
0.12598425 0.00000000 0.0
0.13385827 0.00000000 0.0
0.14173228 0.00000000 0.0
0.14960630 0.00000000 0.0
0.15748031 0.00000000 0.0
0.16535433 0.00000000 0.0
0.17322835 0.00000000 0.0
0.18110236 0.00000000 0.0
0.18897638 0.00000000 0.0
0.19685039 0.00000000 0.0
0.20472441 0.00000000 0.0
0.21259843 0.00000000 0.0
0.22047244 0.00000000 0.0
0.22834646 0.00000000 0.0
0.23622047 0.00000000 0.0
0.24409449 0.00000000 0.0
0.25196850 0.00000000 0.0
0.25984252 0.00000000 0.0
0.26771654 0.00000000 0.0
0.27559055 0.00000000 0.0
0.28346457 0.00000000 0.0
0.29133858 0.00000000 0.0
0.29921260 0.00000000 0.0
0.30708661 0.00000000 0.0
0.31496063 0.00000000 0.0
0.32283465 0.00000000 0.0
0.33070866 0.00000000 0.0
0.33858268 0.00000000 0.0
0.34645669 0.00000000 0.0
0.35433071 0.00000000 0.0
0.36220472 0.00000000 0.0
0.37007874 0.00000000 0.0
0.37795276 0.00000000 0.0
0.38582677 0.00000000 0.0
0.39370079 0.00000000 0.0
0.40157480 0.00000000 0.0
0.40944882 0.00000000 0.0
0.41732283 0.00000000 0.0
0.42519685 0.00000000 0.0
0.43307087 0.00000000 0.0
0.44094488 0.00000000 0.0
0.44881890 0.00000000 0.0
0.45669291 0.00000000 0.0
0.46456693 0.00000000 0.0
0.47244094 0.00000000 0.0
0.48031496 0.00000000 0.0
0.48818898 0.00000000 0.0
0.49606299 0.00000000 0.0
0.50393701 0.00000000 0.0
0.51181102 0.00000000 0.0
0.51968504 0.00000000 0.0
0.52755906 0.00000000 0.0
0.53543307 0.00000000 0.0
0.54330709 0.00000000 0.0
0.55118110 0.00000000 0.0
0.55905512 0.00000000 0.0
0.56692913 0.00000000 0.0
0.57480315 0.00000000 0.0
0.58267717 0.00000000 0.0
0.59055118 0.00000000 0.0
0.59842520 0.00000000 0.0
0.60629921 0.00000000 0.0
0.61417323 0.00000000 0.0
0.62204724 0.00000000 0.0
0.62992126 0.00000000 0.0
0.63779528 0.00000000 0.0
0.64566929 0.00000000 0.0
0.65354331 0.00000000 0.0
0.66141732 0.00000000 0.0
0.66929134 0.00000000 0.0
0.67716535 0.00000000 0.0
0.68503937 0.00000000 0.0
0.69291339 0.00000000 0.0
0.70078740 0.00000000 0.0
0.70866142 0.00000000 0.0
0.71653543 0.00000000 0.0
0.72440945 0.00000000 0.0
0.73228346 0.00000000 0.0
0.74015748 0.00000000 0.0
0.74803150 0.00000000 0.0
0.75590551 0.00000000 0.0
0.76377953 0.00000000 0.0
0.77165354 0.00000000 0.0
0.77952756 0.00000000 0.0
0.78740157 0.00000000 0.0
0.79527559 0.00000000 0.0
0.80314961 0.00000000 0.0
0.81102362 0.00000000 0.0
0.81889764 0.00000000 0.0
0.82677165 0.00000000 0.0
0.83464567 0.00000000 0.0
0.84251969 0.00000000 0.0
0.85039370 0.00000000 0.0
0.85826772 0.00000000 0.0
0.86614173 0.00000000 0.0
0.87401575 0.00000000 0.0
0.88188976 0.00000000 0.0
0.88976378 0.00000000 0.0
0.89763780 0.00000000 0.0
0.90551181 0.00000000 0.0
0.91338583 0.00000000 0.0
0.92125984 0.00000000 0.0
0.92913386 0.00000000 0.0
0.93700787 0.00000000 0.0
0.94488189 0.00000000 0.0
0.95275591 0.00000000 0.0
0.96062992 0.00000000 0.0
0.96850394 0.00000000 0.0
0.97637795 0.00000000 0.0
0.98425197 0.00000000 0.0
0.99212598 0.00000000 0.0
1.00000000 0.00000000 0.0
0.00000000 0.00787402 0.0
0.00787402 0.00787402 0.0
0.01574803 0.00787402 0.0
0.02362205 0.00787402 0.0
0.03149606 0.00787402 0.0
0.03937008 0.00787402 0.0
0.04724409 0.00787402 0.0
0.05511811 0.00787402 0.0
0.06299213 0.00787402 0.0
0.07086614 0.00787402 0.0
0.07874016 0.00787402 0.0
0.08661417 0.00787402 0.0
0.09448819 0.00787402 0.0
0.10236220 0.00787402 0.0
0.11023622 0.00787402 0.0
0.11811024 0.00787402 0.0
0.12598425 0.00787402 0.0
0.13385827 0.00787402 0.0
0.14173228 0.00787402 0.0
0.14960630 0.00787402 0.0
0.15748031 0.00787402 0.0
0.16535433 0.00787402 0.0
0.17322835 0.00787402 0.0
0.18110236 0.00787402 0.0
0.18897638 0.00787402 0.0
0.19685039 0.00787402 0.0
0.20472441 0.00787402 0.0
0.21259843 0.00787402 0.0
0.22047244 0.00787402 0.0
0.22834646 0.00787402 0.0
0.23622047 0.00787402 0.0
0.24409449 0.00787402 0.0
0.25196850 0.00787402 0.0
0.25984252 0.00787402 0.0
0.26771654 0.00787402 0.0
0.27559055 0.00787402 0.0
0.28346457 0.00787402 0.0
0.29133858 0.00787402 0.0
0.29921260 0.00787402 0.0
0.30708661 0.00787402 0.0
0.31496063 0.00787402 0.0
0.32283465 0.00787402 0.0
0.33070866 0.00787402 0.0
0.33858268 0.00787402 0.0
0.34645669 0.00787402 0.0
0.35433071 0.00787402 0.0
0.36220472 0.00787402 0.0
0.37007874 0.00787402 0.0
0.37795276 0.00787402 0.0
0.38582677 0.00787402 0.0
0.39370079 0.00787402 0.0
0.40157480 0.00787402 0.0
0.40944882 0.00787402 0.0
0.41732283 0.00787402 0.0
0.42519685 0.00787402 0.0
0.43307087 0.00787402 0.0
0.44094488 0.00787402 0.0
0.44881890 0.00787402 0.0
0.45669291 0.00787402 0.0
0.46456693 0.00787402 0.0
0.47244094 0.00787402 0.0
0.48031496 0.00787402 0.0
0.48818898 0.00787402 0.0
0.49606299 0.00787402 0.0
0.50393701 0.00787402 0.0
0.51181102 0.00787402 0.0
0.51968504 0.00787402 0.0
0.52755906 0.00787402 0.0
0.53543307 0.00787402 0.0
0.54330709 0.00787402 0.0
0.55118110 0.00787402 0.0
0.55905512 0.00787402 0.0
0.56692913 0.00787402 0.0
0.57480315 0.00787402 0.0
0.58267717 0.00787402 0.0
0.59055118 0.00787402 0.0
0.59842520 0.00787402 0.0
0.60629921 0.00787402 0.0
0.61417323 0.00787402 0.0
0.62204724 0.00787402 0.0
0.62992126 0.00787402 0.0
0.63779528 0.00787402 0.0
0.64566929 0.00787402 0.0
0.65354331 0.00787402 0.0
0.66141732 0.00787402 0.0
0.66929134 0.00787402 0.0
0.67716535 0.00787402 0.0
0.68503937 0.00787402 0.0
0.69291339 0.00787402 0.0
0.70078740 0.00787402 0.0
0.70866142 0.00787402 0.0
0.71653543 0.00787402 0.0
0.72440945 0.00787402 0.0
0.73228346 0.00787402 0.0
0.74015748 0.00787402 0.0
0.74803150 0.00787402 0.0
0.75590551 0.00787402 0.0
0.76377953 0.00787402 0.0
0.77165354 0.00787402 0.0
0.77952756 0.00787402 0.0
0.78740157 0.00787402 0.0
0.79527559 0.00787402 0.0
0.80314961 0.00787402 0.0
0.81102362 0.00787402 0.0
0.81889764 0.00787402 0.0
0.82677165 0.00787402 0.0
0.83464567 0.00787402 0.0
0.84251969 0.00787402 0.0
0.85039370 0.00787402 0.0
0.85826772 0.00787402 0.0
0.86614173 0.00787402 0.0
0.87401575 0.00787402 0.0
0.88188976 0.00787402 0.0
0.88976378 0.00787402 0.0
0.89763780 0.00787402 0.0
0.90551181 0.00787402 0.0
0.91338583 0.00787402 0.0
0.92125984 0.00787402 0.0
0.92913386 0.00787402 0.0
0.93700787 0.00787402 0.0
0.94488189 0.00787402 0.0
0.95275591 0.00787402 0.0
0.96062992 0.00787402 0.0
0.96850394 0.00787402 0.0
0.97637795 0.00787402 0.0
0.98425197 0.00787402 0.0
0.99212598 0.00787402 0.0
1.00000000 0.00787402 0.0
0.00000000 0.01574803 0.0
0.00787402 0.01574803 0.0
0.01574803 0.01574803 0.0
0.02362205 0.01574803 0.0
0.03149606 0.01574803 0.0
0.03937008 0.01574803 0.0
0.04724409 0.01574803 0.0
0.05511811 0.01574803 0.0
0.06299213 0.01574803 0.0
0.07086614 0.01574803 0.0
0.07874016 0.01574803 0.0
0.08661417 0.01574803 0.0
0.09448819 0.01574803 0.0
0.10236220 0.01574803 0.0
0.11023622 0.01574803 0.0
0.11811024 0.01574803 0.0
0.12598425 0.01574803 0.0
0.13385827 0.01574803 0.0
0.14173228 0.01574803 0.0
0.14960630 0.01574803 0.0
0.15748031 0.01574803 0.0
0.16535433 0.01574803 0.0
0.17322835 0.01574803 0.0
0.18110236 0.01574803 0.0
0.18897638 0.01574803 0.0
0.19685039 0.01574803 0.0
0.20472441 0.01574803 0.0
0.21259843 0.01574803 0.0
0.22047244 0.01574803 0.0
0.22834646 0.01574803 0.0
0.23622047 0.01574803 0.0
0.24409449 0.01574803 0.0
0.25196850 0.01574803 0.0
0.25984252 0.01574803 0.0
0.26771654 0.01574803 0.0
0.27559055 0.01574803 0.0
0.28346457 0.01574803 0.0
0.29133858 0.01574803 0.0
0.29921260 0.01574803 0.0
0.30708661 0.01574803 0.0
0.31496063 0.01574803 0.0
0.32283465 0.01574803 0.0
0.33070866 0.01574803 0.0
0.33858268 0.01574803 0.0
0.34645669 0.01574803 0.0
0.35433071 0.01574803 0.0
0.36220472 0.01574803 0.0
0.37007874 0.01574803 0.0
0.37795276 0.01574803 0.0
0.38582677 0.01574803 0.0
0.39370079 0.01574803 0.0
0.40157480 0.01574803 0.0
0.40944882 0.01574803 0.0
0.41732283 0.01574803 0.0
0.42519685 0.01574803 0.0
0.43307087 0.01574803 0.0
0.44094488 0.01574803 0.0
0.44881890 0.01574803 0.0
0.45669291 0.01574803 0.0
0.46456693 0.01574803 0.0
0.47244094 0.01574803 0.0
0.48031496 0.01574803 0.0
0.48818898 0.01574803 0.0
0.49606299 0.01574803 0.0
0.50393701 0.01574803 0.0
0.51181102 0.01574803 0.0
0.51968504 0.01574803 0.0
0.52755906 0.01574803 0.0
0.53543307 0.01574803 0.0
0.54330709 0.01574803 0.0
0.55118110 0.01574803 0.0
0.55905512 0.01574803 0.0
0.56692913 0.01574803 0.0
0.57480315 0.01574803 0.0
0.58267717 0.01574803 0.0
0.59055118 0.01574803 0.0
0.59842520 0.01574803 0.0
0.60629921 0.01574803 0.0
0.61417323 0.01574803 0.0
0.62204724 0.01574803 0.0
0.62992126 0.01574803 0.0
0.63779528 0.01574803 0.0
0.64566929 0.01574803 0.0
0.65354331 0.01574803 0.0
0.66141732 0.01574803 0.0
0.66929134 0.01574803 0.0
0.67716535 0.01574803 0.0
0.68503937 0.01574803 0.0
0.69291339 0.01574803 0.0
0.70078740 0.01574803 0.0
0.70866142 0.01574803 0.0
0.71653543 0.01574803 0.0
0.72440945 0.01574803 0.0
0.73228346 0.01574803 0.0
0.74015748 0.01574803 0.0
0.74803150 0.01574803 0.0
0.75590551 0.01574803 0.0
0.76377953 0.01574803 0.0
0.77165354 0.01574803 0.0
0.77952756 0.01574803 0.0
0.78740157 0.01574803 0.0
0.79527559 0.01574803 0.0
0.80314961 0.01574803 0.0
0.81102362 0.01574803 0.0
0.81889764 0.01574803 0.0
0.82677165 0.01574803 0.0
0.83464567 0.01574803 0.0
0.84251969 0.01574803 0.0
0.85039370 0.01574803 0.0
0.85826772 0.01574803 0.0
0.86614173 0.01574803 0.0
0.87401575 0.01574803 0.0
0.88188976 0.01574803 0.0
0.88976378 0.01574803 0.0
0.89763780 0.01574803 0.0
0.90551181 0.01574803 0.0
0.91338583 0.01574803 0.0
0.92125984 0.01574803 0.0
0.92913386 0.01574803 0.0
0.93700787 0.01574803 0.0
0.94488189 0.01574803 0.0
0.95275591 0.01574803 0.0
0.96062992 0.01574803 0.0
[...]
POINT_DATA 16384
VECTORS V float
0.00000000 0.00000000 0.0
0.00000000 0.00000000 0.0
0.00000000 0.00000000 0.0
0.00000000 0.00000000 0.0
0.00000000 0.00000000 0.0
0.00000000 0.00000000 0.0
0.00000000 0.00000000 0.0
0.00000000 0.00000000 0.0
0.00000000 0.00000000 0.0
0.00000000 0.00000000 0.0
0.00000000 0.00000000 0.0
0.00000000 0.00000000 0.0
0.00000000 0.00000000 0.0
0.00000000 0.00000000 0.0
0.00000000 0.00000000 0.0
0.00000000 0.00000000 0.0
0.00000000 0.00000000 0.0
0.00000000 0.00000000 0.0
0.00000000 0.00000000 0.0
0.00000000 0.00000000 0.0
0.00000000 0.00000000 0.0
0.00000000 0.00000000 0.0
0.00000000 0.00000000 0.0
0.00000000 0.00000000 0.0
0.00000000 0.00000000 0.0
0.00000000 0.00000000 0.0
0.00000000 0.00000000 0.0
0.00000000 0.00000000 0.0
0.00000000 0.00000000 0.0
0.00000000 0.00000000 0.0
0.00000000 0.00000000 0.0
0.00000000 0.00000000 0.0
0.00000000 0.00000000 0.0
0.00000000 0.00000000 0.0
0.00000000 0.00000000 0.0
0.00000000 0.00000000 0.0
0.00000000 0.00000000 0.0
0.00000000 0.00000000 0.0
0.00000000 0.00000000 0.0
0.00000000 0.00000000 0.0
0.00000000 0.00000000 0.0
0.00000000 0.00000000 0.0
0.00000000 0.00000000 0.0
0.00000000 0.00000000 0.0
0.00000000 0.00000000 0.0
0.00000000 0.00000000 0.0
0.00000000 0.00000000 0.0
0.00000000 0.00000000 0.0
0.00000000 0.00000000 0.0
0.00000000 0.00000000 0.0
0.00000000 0.00000000 0.0
0.00000000 0.00000000 0.0
0.00000000 0.00000000 0.0
0.00000000 0.00000000 0.0
0.00000000 0.00000000 0.0
0.00000000 0.00000000 0.0
0.00000000 0.00000000 0.0
0.00000000 0.00000000 0.0
0.00000000 0.00000000 0.0
0.00000000 0.00000000 0.0
0.00000000 0.00000000 0.0
0.00000000 0.00000000 0.0
0.00000000 0.00000000 0.0
0.00000000 0.00000000 0.0
0.00000000 0.00000000 0.0
0.00000000 0.00000000 0.0
0.00000000 0.00000000 0.0
0.00000000 0.00000000 0.0
0.00000000 0.00000000 0.0
0.00000000 0.00000000 0.0
0.00000000 0.00000000 0.0
0.00000000 0.00000000 0.0
0.00000000 0.00000000 0.0
0.00000000 0.00000000 0.0
0.00000000 0.00000000 0.0
0.00000000 0.00000000 0.0
0.00000000 0.00000000 0.0
0.00000000 0.00000000 0.0
0.00000000 0.00000000 0.0
0.00000000 0.00000000 0.0
0.00000000 0.00000000 0.0
0.00000000 0.00000000 0.0
0.00000000 0.00000000 0.0
0.00000000 0.00000000 0.0
0.00000000 0.00000000 0.0
0.00000000 0.00000000 0.0
0.00000000 0.00000000 0.0
0.00000000 0.00000000 0.0
0.00000000 0.00000000 0.0
0.00000000 0.00000000 0.0
0.00000000 0.00000000 0.0
0.00000000 0.00000000 0.0
0.00000000 0.00000000 0.0
0.00000000 0.00000000 0.0
0.00000000 0.00000000 0.0
0.00000000 0.00000000 0.0
0.00000000 0.00000000 0.0
0.00000000 0.00000000 0.0
0.00000000 0.00000000 0.0
0.00000000 0.00000000 0.0
0.00000000 0.00000000 0.0
0.00000000 0.00000000 0.0
0.00000000 0.00000000 0.0
0.00000000 0.00000000 0.0
0.00000000 0.00000000 0.0
0.00000000 0.00000000 0.0
0.00000000 0.00000000 0.0
0.00000000 0.00000000 0.0
0.00000000 0.00000000 0.0
0.00000000 0.00000000 0.0
0.00000000 0.00000000 0.0
0.00000000 0.00000000 0.0
0.00000000 0.00000000 0.0
0.00000000 0.00000000 0.0
0.00000000 0.00000000 0.0
0.00000000 0.00000000 0.0
0.00000000 0.00000000 0.0
0.00000000 0.00000000 0.0
0.00000000 0.00000000 0.0
0.00000000 0.00000000 0.0
0.00000000 0.00000000 0.0
0.00000000 0.00000000 0.0
0.00000000 0.00000000 0.0
0.00000000 0.00000000 0.0
0.00000000 0.00000000 0.0
0.00000000 0.00000000 0.0
0.00000000 0.00000000 0.0
0.00000000 0.00000000 0.0
0.00000000 0.00000000 0.0
-0.00000004 -0.00000006 0.0
-0.00000004 -0.00000006 0.0
-0.00000001 -0.00000004 0.0
0.00000002 -0.00000001 0.0
0.00000007 0.00000004 0.0
0.00000012 0.00000008 0.0
0.00000014 0.00000011 0.0
0.00000013 0.00000012 0.0
0.00000010 0.00000014 0.0
0.00000005 0.00000015 0.0
-0.00000002 0.00000016 0.0
-0.00000011 0.00000016 0.0
-0.00000022 0.00000017 0.0
-0.00000034 0.00000018 0.0
-0.00000047 0.00000018 0.0
-0.00000062 0.00000019 0.0
-0.00000078 0.00000019 0.0
-0.00000095 0.00000020 0.0
-0.00000113 0.00000020 0.0
-0.00000131 0.00000020 0.0
-0.00000151 0.00000020 0.0
-0.00000171 0.00000021 0.0
-0.00000192 0.00000021 0.0
-0.00000214 0.00000021 0.0
-0.00000236 0.00000021 0.0
-0.00000258 0.00000021 0.0
-0.00000281 0.00000021 0.0
-0.00000304 0.00000020 0.0
-0.00000327 0.00000020 0.0
-0.00000350 0.00000020 0.0
-0.00000373 0.00000020 0.0
-0.00000397 0.00000019 0.0
-0.00000420 0.00000019 0.0
-0.00000444 0.00000019 0.0
-0.00000467 0.00000018 0.0
-0.00000490 0.00000018 0.0
-0.00000513 0.00000017 0.0
-0.00000536 0.00000016 0.0
-0.00000558 0.00000016 0.0
-0.00000581 0.00000015 0.0
-0.00000602 0.00000014 0.0
-0.00000624 0.00000013 0.0
-0.00000645 0.00000012 0.0
-0.00000665 0.00000011 0.0
-0.00000685 0.00000010 0.0
-0.00000705 0.00000009 0.0
-0.00000724 0.00000008 0.0
-0.00000742 0.00000007 0.0
-0.00000760 0.00000006 0.0
-0.00000776 0.00000004 0.0
-0.00000792 0.00000003 0.0
-0.00000807 0.00000002 0.0
-0.00000822 0.00000000 0.0
-0.00000835 -0.00000001 0.0
-0.00000847 -0.00000002 0.0
-0.00000859 -0.00000004 0.0
-0.00000869 -0.00000005 0.0
-0.00000879 -0.00000007 0.0
-0.00000887 -0.00000008 0.0
-0.00000894 -0.00000009 0.0
-0.00000899 -0.00000010 0.0
-0.00000903 -0.00000011 0.0
-0.00000905 -0.00000012 0.0
-0.00000906 -0.00000012 0.0
-0.00000905 -0.00000013 0.0
-0.00000903 -0.00000014 0.0
-0.00000900 -0.00000015 0.0
-0.00000895 -0.00000015 0.0
-0.00000888 -0.00000016 0.0
-0.00000880 -0.00000017 0.0
-0.00000871 -0.00000018 0.0
-0.00000861 -0.00000018 0.0
-0.00000849 -0.00000019 0.0
-0.00000835 -0.00000020 0.0
-0.00000820 -0.00000020 0.0
-0.00000805 -0.00000021 0.0
-0.00000787 -0.00000022 0.0
-0.00000769 -0.00000022 0.0
-0.00000749 -0.00000023 0.0
-0.00000729 -0.00000024 0.0
-0.00000707 -0.00000024 0.0
-0.00000684 -0.00000024 0.0
-0.00000661 -0.00000025 0.0
-0.00000636 -0.00000025 0.0
-0.00000612 -0.00000025 0.0
-0.00000586 -0.00000026 0.0
-0.00000560 -0.00000026 0.0
-0.00000534 -0.00000026 0.0
-0.00000507 -0.00000026 0.0
-0.00000481 -0.00000026 0.0
-0.00000454 -0.00000025 0.0
-0.00000427 -0.00000025 0.0
-0.00000400 -0.00000024 0.0
-0.00000373 -0.00000023 0.0
-0.00000347 -0.00000023 0.0
-0.00000320 -0.00000022 0.0
-0.00000294 -0.00000021 0.0
-0.00000268 -0.00000021 0.0
-0.00000243 -0.00000020 0.0
-0.00000219 -0.00000019 0.0
-0.00000195 -0.00000018 0.0
-0.00000173 -0.00000017 0.0
-0.00000151 -0.00000015 0.0
-0.00000131 -0.00000014 0.0
-0.00000112 -0.00000013 0.0
-0.00000094 -0.00000011 0.0
-0.00000078 -0.00000010 0.0
-0.00000063 -0.00000008 0.0
-0.00000049 -0.00000007 0.0
-0.00000037 -0.00000005 0.0
-0.00000026 -0.00000004 0.0
-0.00000017 -0.00000003 0.0
-0.00000009 -0.00000001 0.0
-0.00000003 0.00000001 0.0
0.00000001 0.00000002 0.0
0.00000004 0.00000004 0.0
0.00000006 0.00000005 0.0
0.00000006 0.00000006 0.0
0.00000005 0.00000008 0.0
0.00000003 0.00000009 0.0
0.00000000 0.00000010 0.0
-0.00000003 0.00000011 0.0
-0.00000006 0.00000012 0.0
-0.00000009 0.00000012 0.0
-0.00000010 0.00000011 0.0
-0.00000008 0.00000008 0.0
0.00000000 0.00000000 0.0
0.00000000 0.00000000 0.0
-0.00000004 -0.00000009 0.0
-0.00000004 -0.00000010 0.0
-0.00000000 -0.00000006 0.0
0.00000005 0.00000000 0.0
0.00000011 0.00000008 0.0
0.00000015 0.00000016 0.0
0.00000016 0.00000022 0.0
0.00000012 0.00000027 0.0
0.00000005 0.00000031 0.0
-0.00000006 0.00000035 0.0
-0.00000021 0.00000039 0.0
-0.00000039 0.00000042 0.0
-0.00000060 0.00000045 0.0
-0.00000084 0.00000048 0.0
-0.00000110 0.00000050 0.0
-0.00000139 0.00000052 0.0
-0.00000170 0.00000054 0.0
-0.00000203 0.00000056 0.0
-0.00000238 0.00000057 0.0
-0.00000275 0.00000059 0.0
-0.00000313 0.00000060 0.0
-0.00000353 0.00000061 0.0
-0.00000394 0.00000062 0.0
-0.00000435 0.00000062 0.0
-0.00000478 0.00000063 0.0
-0.00000522 0.00000063 0.0
-0.00000566 0.00000063 0.0
-0.00000611 0.00000063 0.0
-0.00000656 0.00000063 0.0
-0.00000702 0.00000062 0.0
-0.00000747 0.00000062 0.0
-0.00000793 0.00000061 0.0
-0.00000839 0.00000061 0.0
-0.00000885 0.00000060 0.0
-0.00000930 0.00000059 0.0
-0.00000975 0.00000057 0.0
-0.00001020 0.00000056 0.0
-0.00001065 0.00000054 0.0
-0.00001108 0.00000053 0.0
-0.00001152 0.00000051 0.0
-0.00001194 0.00000049 0.0
-0.00001236 0.00000047 0.0
-0.00001277 0.00000044 0.0
-0.00001317 0.00000042 0.0
-0.00001356 0.00000039 0.0
-0.00001394 0.00000037 0.0
-0.00001431 0.00000034 0.0
-0.00001467 0.00000031 0.0
-0.00001501 0.00000028 0.0
-0.00001533 0.00000024 0.0
-0.00001564 0.00000021 0.0
-0.00001593 0.00000017 0.0
-0.00001621 0.00000013 0.0
-0.00001646 0.00000010 0.0
-0.00001670 0.00000006 0.0
-0.00001692 0.00000002 0.0
-0.00001712 -0.00000002 0.0
-0.00001730 -0.00000006 0.0
-0.00001746 -0.00000010 0.0
-0.00001759 -0.00000013 0.0
-0.00001769 -0.00000016 0.0
-0.00001776 -0.00000019 0.0
-0.00001780 -0.00000022 0.0
-0.00001781 -0.00000025 0.0
-0.00001780 -0.00000028 0.0
-0.00001776 -0.00000030 0.0
-0.00001769 -0.00000033 0.0
-0.00001759 -0.00000036 0.0
-0.00001746 -0.00000039 0.0
-0.00001731 -0.00000042 0.0
-0.00001713 -0.00000045 0.0
-0.00001692 -0.00000048 0.0
-0.00001669 -0.00000051 0.0
-0.00001643 -0.00000053 0.0
-0.00001614 -0.00000056 0.0
-0.00001583 -0.00000058 0.0
-0.00001550 -0.00000061 0.0
-0.00001514 -0.00000063 0.0
-0.00001476 -0.00000065 0.0
-0.00001436 -0.00000067 0.0
-0.00001394 -0.00000069 0.0
-0.00001350 -0.00000071 0.0
-0.00001305 -0.00000073 0.0
-0.00001258 -0.00000074 0.0
-0.00001210 -0.00000075 0.0
-0.00001160 -0.00000077 0.0
-0.00001110 -0.00000077 0.0
-0.00001059 -0.00000078 0.0
-0.00001008 -0.00000078 0.0
-0.00000956 -0.00000078 0.0
-0.00000904 -0.00000077 0.0
-0.00000852 -0.00000076 0.0
-0.00000800 -0.00000075 0.0
-0.00000748 -0.00000073 0.0
-0.00000696 -0.00000072 0.0
-0.00000644 -0.00000070 0.0
-0.00000593 -0.00000068 0.0
-0.00000544 -0.00000066 0.0
-0.00000495 -0.00000063 0.0
-0.00000448 -0.00000060 0.0
-0.00000402 -0.00000057 0.0
-0.00000359 -0.00000054 0.0
-0.00000317 -0.00000051 0.0
-0.00000277 -0.00000047 0.0
-0.00000240 -0.00000044 0.0
-0.00000205 -0.00000040 0.0
-0.00000172 -0.00000035 0.0
-0.00000142 -0.00000031 0.0
-0.00000115 -0.00000027 0.0
-0.00000091 -0.00000022 0.0
-0.00000069 -0.00000018 0.0
-0.00000051 -0.00000013 0.0
-0.00000035 -0.00000009 0.0
-0.00000022 -0.00000004 0.0
-0.00000012 0.00000000 0.0
-0.00000005 0.00000005 0.0
-0.00000000 0.00000009 0.0
0.00000002 0.00000013 0.0
0.00000002 0.00000016 0.0
0.00000001 0.00000020 0.0
-0.00000002 0.00000022 0.0
-0.00000006 0.00000024 0.0
-0.00000010 0.00000025 0.0
-0.00000013 0.00000025 0.0
-0.00000013 0.00000021 0.0
-0.00000010 0.00000014 0.0
0.00000000 0.00000000 0.0
0.00000000 0.00000000 0.0
-0.00000002 -0.00000010 0.0
-0.00000002 -0.00000011 0.0
0.00000001 -0.00000006 0.0
0.00000006 0.00000004 0.0
0.00000011 0.00000015 0.0
0.00000012 0.00000026 0.0
0.00000009 0.00000037 0.0
0.00000001 0.00000046 0.0
-0.00000012 0.00000055 0.0
-0.00000030 0.00000063 0.0
-0.00000053 0.00000070 0.0
-0.00000080 0.00000077 0.0
-0.00000112 0.00000083 0.0
-0.00000147 0.00000089 0.0
-0.00000186 0.00000095 0.0
-0.00000229 0.00000100 0.0
-0.00000275 0.00000104 0.0
-0.00000323 0.00000108 0.0
-0.00000375 0.00000112 0.0
-0.00000428 0.00000115 0.0
-0.00000485 0.00000117 0.0
-0.00000543 0.00000120 0.0
-0.00000603 0.00000122 0.0
-0.00000664 0.00000123 0.0
-0.00000727 0.00000125 0.0
-0.00000791 0.00000125 0.0
-0.00000856 0.00000126 0.0
-0.00000921 0.00000126 0.0
-0.00000987 0.00000126 0.0
-0.00001054 0.00000126 0.0
-0.00001121 0.00000125 0.0
-0.00001188 0.00000125 0.0
-0.00001255 0.00000123 0.0
-0.00001322 0.00000122 0.0
-0.00001389 0.00000120 0.0
-0.00001455 0.00000118 0.0
-0.00001521 0.00000116 0.0
-0.00001586 0.00000113 0.0
-0.00001650 0.00000110 0.0
-0.00001714 0.00000106 0.0
-0.00001776 0.00000103 0.0
-0.00001838 0.00000099 0.0
-0.00001898 0.00000095 0.0
-0.00001956 0.00000091 0.0
-0.00002013 0.00000086 0.0
-0.00002069 0.00000081 0.0
-0.00002123 0.00000076 0.0
-0.00002175 0.00000071 0.0
-0.00002224 0.00000065 0.0
-0.00002272 0.00000059 0.0
-0.00002317 0.00000052 0.0
-0.00002359 0.00000045 0.0
-0.00002399 0.00000039 0.0
-0.00002436 0.00000031 0.0
-0.00002471 0.00000024 0.0
-0.00002503 0.00000017 0.0
-0.00002531 0.00000010 0.0
-0.00002557 0.00000002 0.0
-0.00002579 -0.00000005 0.0
-0.00002597 -0.00000011 0.0
-0.00002611 -0.00000018 0.0
-0.00002621 -0.00000024 0.0
-0.00002627 -0.00000031 0.0
-0.00002629 -0.00000037 0.0
-0.00002627 -0.00000044 0.0
-0.00002620 -0.00000050 0.0
-0.00002610 -0.00000056 0.0
-0.00002596 -0.00000063 0.0
-0.00002577 -0.00000069 0.0
-0.00002554 -0.00000075 0.0
-0.00002528 -0.00000082 0.0
-0.00002498 -0.00000088 0.0
-0.00002464 -0.00000094 0.0
-0.00002426 -0.00000100 0.0
-0.00002384 -0.00000105 0.0
-0.00002338 -0.00000111 0.0
-0.00002290 -0.00000116 0.0
-0.00002238 -0.00000121 0.0
-0.00002182 -0.00000126 0.0
-0.00002124 -0.00000130 0.0
-0.00002063 -0.00000135 0.0
-0.00001999 -0.00000138 0.0
-0.00001933 -0.00000142 0.0
-0.00001865 -0.00000145 0.0
-0.00001795 -0.00000148 0.0
-0.00001724 -0.00000150 0.0
-0.00001651 -0.00000152 0.0
-0.00001576 -0.00000153 0.0
-0.00001502 -0.00000154 0.0
-0.00001426 -0.00000154 0.0
-0.00001351 -0.00000153 0.0
-0.00001275 -0.00000152 0.0
-0.00001199 -0.00000150 0.0
-0.00001123 -0.00000148 0.0
-0.00001047 -0.00000145 0.0
-0.00000972 -0.00000142 0.0
-0.00000898 -0.00000138 0.0
-0.00000826 -0.00000134 0.0
-0.00000755 -0.00000129 0.0
-0.00000686 -0.00000124 0.0
-0.00000619 -0.00000118 0.0
-0.00000555 -0.00000112 0.0
-0.00000494 -0.00000106 0.0
-0.00000436 -0.00000099 0.0
-0.00000381 -0.00000091 0.0
-0.00000329 -0.00000084 0.0
-0.00000281 -0.00000076 0.0
-0.00000236 -0.00000068 0.0
-0.00000196 -0.00000059 0.0
-0.00000159 -0.00000051 0.0
-0.00000127 -0.00000042 0.0
-0.00000098 -0.00000033 0.0
-0.00000074 -0.00000024 0.0
-0.00000053 -0.00000016 0.0
-0.00000037 -0.00000007 0.0
-0.00000024 0.00000001 0.0
-0.00000015 0.00000009 0.0
-0.00000010 0.00000017 0.0
-0.00000007 0.00000023 0.0
-0.00000007 0.00000029 0.0
-0.00000008 0.00000034 0.0
-0.00000011 0.00000037 0.0
-0.00000014 0.00000038 0.0
-0.00000015 0.00000037 0.0
-0.00000015 0.00000031 0.0
-0.00000010 0.00000019 0.0
0.00000000 0.00000000 0.0
0.00000000 0.00000000 0.0
-0.00000001 -0.00000010 0.0
0.00000000 -0.00000010 0.0
0.00000002 -0.00000002 0.0
0.00000005 0.00000010 0.0
0.00000006 0.00000025 0.0
0.00000003 0.00000041 0.0
-0.00000005 0.00000056 0.0
-0.00000019 0.00000071 0.0
-0.00000039 0.00000085 0.0
-0.00000064 0.00000098 0.0
-0.00000096 0.00000110 0.0
-0.00000132 0.00000122 0.0
-0.00000174 0.00000133 0.0
-0.00000222 0.00000143 0.0
-0.00000273 0.00000152 0.0
-0.00000330 0.00000161 0.0
-0.00000390 0.00000169 0.0
-0.00000453 0.00000176 0.0
-0.00000521 0.00000182 0.0
-0.00000591 0.00000188 0.0
-0.00000664 0.00000193 0.0
-0.00000740 0.00000197 0.0
-0.00000819 0.00000200 0.0
-0.00000899 0.00000203 0.0
-0.00000981 0.00000206 0.0
-0.00001064 0.00000208 0.0
-0.00001149 0.00000209 0.0
-0.00001234 0.00000210 0.0
-0.00001320 0.00000210 0.0
-0.00001408 0.00000210 0.0
-0.00001495 0.00000209 0.0
-0.00001582 0.00000208 0.0
-0.00001670 0.00000207 0.0
-0.00001758 0.00000204 0.0
-0.00001844 0.00000202 0.0
-0.00001931 0.00000198 0.0
-0.00002017 0.00000195 0.0
-0.00002102 0.00000191 0.0
-0.00002185 0.00000186 0.0
-0.00002268 0.00000181 0.0
-0.00002349 0.00000176 0.0
-0.00002429 0.00000170 0.0
-0.00002507 0.00000164 0.0
-0.00002583 0.00000157 0.0
-0.00002658 0.00000150 0.0
-0.00002730 0.00000142 0.0
-0.00002800 0.00000134 0.0
-0.00002867 0.00000125 0.0
-0.00002932 0.00000116 0.0
-0.00002993 0.00000107 0.0
-0.00003051 0.00000097 0.0
-0.00003107 0.00000086 0.0
-0.00003158 0.00000075 0.0
-0.00003206 0.00000064 0.0
-0.00003251 0.00000052 0.0
-0.00003291 0.00000040 0.0
-0.00003328 0.00000029 0.0
-0.00003361 0.00000017 0.0
-0.00003389 0.00000006 0.0
-0.00003411 -0.00000006 0.0
-0.00003429 -0.00000017 0.0
-0.00003441 -0.00000028 0.0
-0.00003449 -0.00000039 0.0
-0.00003451 -0.00000050 0.0
-0.00003447 -0.00000061 0.0
-0.00003439 -0.00000072 0.0
-0.00003425 -0.00000083 0.0
-0.00003406 -0.00000094 0.0
-0.00003382 -0.00000105 0.0
-0.00003353 -0.00000116 0.0
-0.00003318 -0.00000127 0.0
-0.00003279 -0.00000137 0.0
-0.00003235 -0.00000148 0.0
-0.00003185 -0.00000158 0.0
-0.00003131 -0.00000168 0.0
-0.00003072 -0.00000177 0.0
-0.00003009 -0.00000186 0.0
-0.00002942 -0.00000195 0.0
-0.00002870 -0.00000204 0.0
-0.00002795 -0.00000211 0.0
-0.00002716 -0.00000219 0.0
-0.00002634 -0.00000226 0.0
-0.00002548 -0.00000232 0.0
-0.00002460 -0.00000237 0.0
-0.00002370 -0.00000242 0.0
-0.00002277 -0.00000246 0.0
-0.00002183 -0.00000249 0.0
-0.00002087 -0.00000251 0.0
-0.00001990 -0.00000253 0.0
-0.00001892 -0.00000253 0.0
-0.00001794 -0.00000253 0.0
-0.00001696 -0.00000251 0.0
-0.00001597 -0.00000249 0.0
-0.00001499 -0.00000245 0.0
-0.00001400 -0.00000241 0.0
-0.00001303 -0.00000236 0.0
-0.00001208 -0.00000231 0.0
-0.00001113 -0.00000224 0.0
-0.00001021 -0.00000217 0.0
-0.00000932 -0.00000208 0.0
-0.00000845 -0.00000199 0.0
-0.00000761 -0.00000189 0.0
-0.00000681 -0.00000179 0.0
-0.00000605 -0.00000168 0.0
-0.00000533 -0.00000156 0.0
-0.00000465 -0.00000144 0.0
-0.00000402 -0.00000131 0.0
-0.00000343 -0.00000117 0.0
-0.00000289 -0.00000104 0.0
-0.00000240 -0.00000090 0.0
-0.00000196 -0.00000076 0.0
-0.00000157 -0.00000062 0.0
-0.00000124 -0.00000048 0.0
-0.00000095 -0.00000034 0.0
-0.00000072 -0.00000020 0.0
-0.00000053 -0.00000007 0.0
-0.00000038 0.00000006 0.0
-0.00000028 0.00000017 0.0
-0.00000021 0.00000028 0.0
-0.00000018 0.00000037 0.0
-0.00000017 0.00000044 0.0
-0.00000017 0.00000049 0.0
-0.00000018 0.00000050 0.0
-0.00000018 0.00000047 0.0
-0.00000016 0.00000039 0.0
-0.00000010 0.00000024 0.0
0.00000000 0.00000000 0.0
0.00000000 0.00000000 0.0
0.00000001 -0.00000008 0.0
0.00000001 -0.00000006 0.0
0.00000002 0.00000004 0.0
0.00000002 0.00000020 0.0
-0.00000001 0.00000040 0.0
-0.00000010 0.00000060 0.0
-0.00000024 0.00000081 0.0
-0.00000045 0.00000102 0.0
-0.00000072 0.00000122 0.0
-0.00000106 0.00000142 0.0
-0.00000147 0.00000160 0.0
-0.00000194 0.00000177 0.0
-0.00000247 0.00000193 0.0
-0.00000306 0.00000209 0.0
-0.00000370 0.00000223 0.0
-0.00000439 0.00000236 0.0
-0.00000514 0.00000248 0.0
-0.00000592 0.00000258 0.0
-0.00000675 0.00000268 0.0
-0.00000762 0.00000277 0.0
-0.00000852 0.00000284 0.0
-0.00000945 0.00000291 0.0
-0.00001040 0.00000297 0.0
-0.00001139 0.00000302 0.0
-0.00001239 0.00000306 0.0
-0.00001341 0.00000309 0.0
-0.00001445 0.00000311 0.0
-0.00001549 0.00000313 0.0
-0.00001655 0.00000314 0.0
-0.00001762 0.00000314 0.0
-0.00001868 0.00000313 0.0
-0.00001976 0.00000311 0.0
-0.00002083 0.00000309 0.0
-0.00002190 0.00000306 0.0
-0.00002296 0.00000303 0.0
-0.00002402 0.00000298 0.0
-0.00002507 0.00000293 0.0
-0.00002611 0.00000288 0.0
-0.00002713 0.00000281 0.0
-0.00002814 0.00000274 0.0
-0.00002913 0.00000267 0.0
-0.00003011 0.00000258 0.0
-0.00003106 0.00000250 0.0
-0.00003199 0.00000240 0.0
-0.00003290 0.00000230 0.0
-0.00003378 0.00000219 0.0
-0.00003463 0.00000207 0.0
-0.00003545 0.00000195 0.0
-0.00003624 0.00000182 0.0
-0.00003699 0.00000168 0.0
-0.00003770 0.00000153 0.0
-0.00003837 0.00000138 0.0
-0.00003900 0.00000122 0.0
-0.00003958 0.00000106 0.0
-0.00004011 0.00000089 0.0
-0.00004060 0.00000072 0.0
-0.00004105 0.00000055 0.0
-0.00004143 0.00000038 0.0
-0.00004176 0.00000021 0.0
-0.00004203 0.00000004 0.0
-0.00004224 -0.00000013 0.0
-0.00004239 -0.00000029 0.0
-0.00004247 -0.00000046 0.0
-0.00004249 -0.00000063 0.0
-0.00004245 -0.00000080 0.0
-0.00004234 -0.00000097 0.0
-0.00004217 -0.00000114 0.0
-0.00004194 -0.00000131 0.0
-0.00004165 -0.00000147 0.0
-0.00004129 -0.00000164 0.0
-0.00004087 -0.00000180 0.0
-0.00004039 -0.00000197 0.0
-0.00003984 -0.00000212 0.0
-0.00003924 -0.00000228 0.0
-0.00003858 -0.00000243 0.0
-0.00003787 -0.00000257 0.0
-0.00003710 -0.00000271 0.0
-0.00003628 -0.00000285 0.0
-0.00003542 -0.00000298 0.0
-0.00003450 -0.00000310 0.0
-0.00003354 -0.00000321 0.0
-0.00003255 -0.00000331 0.0
-0.00003151 -0.00000340 0.0
-0.00003044 -0.00000349 0.0
-0.00002934 -0.00000356 0.0
-0.00002821 -0.00000362 0.0
-0.00002707 -0.00000367 0.0
-0.00002590 -0.00000371 0.0
-0.00002472 -0.00000373 0.0
-0.00002353 -0.00000374 0.0
-0.00002234 -0.00000374 0.0
-0.00002114 -0.00000372 0.0
-0.00001995 -0.00000369 0.0
-0.00001875 -0.00000365 0.0