# vtk DataFile Version 4.2
Velocity and Pressure Data
ASCII
DATASET STRUCTURED_GRID
DIMENSIONS 128 128 1
POINTS 16384 float
0.00000000 0.00000000 0.0
0.00787402 0.00000000 0.0
0.01574803 0.00000000 0.0
0.02362205 0.00000000 0.0
0.03149606 0.00000000 0.0
0.03937008 0.00000000 0.0
0.04724409 0.00000000 0.0
0.05511811 0.00000000 0.0
0.06299213 0.00000000 0.0
0.07086614 0.00000000 0.0
0.07874016 0.00000000 0.0
0.08661417 0.00000000 0.0
0.09448819 0.00000000 0.0
0.10236220 0.00000000 0.0
0.11023622 0.00000000 0.0
0.11811024 0.00000000 0.0
0.12598425 0.00000000 0.0
0.13385827 0.00000000 0.0
0.14173228 0.00000000 0.0
0.14960630 0.00000000 0.0
0.15748031 0.00000000 0.0
0.16535433 0.00000000 0.0
0.17322835 0.00000000 0.0
0.18110236 0.00000000 0.0
0.18897638 0.00000000 0.0
0.19685039 0.00000000 0.0
0.20472441 0.00000000 0.0
0.21259843 0.00000000 0.0
0.22047244 0.00000000 0.0
0.22834646 0.00000000 0.0
0.23622047 0.00000000 0.0
0.24409449 0.00000000 0.0
0.25196850 0.00000000 0.0
0.25984252 0.00000000 0.0
0.26771654 0.00000000 0.0
0.27559055 0.00000000 0.0
0.28346457 0.00000000 0.0
0.29133858 0.00000000 0.0
0.29921260 0.00000000 0.0
0.30708661 0.00000000 0.0
0.31496063 0.00000000 0.0
0.32283465 0.00000000 0.0
0.33070866 0.00000000 0.0
0.33858268 0.00000000 0.0
0.34645669 0.00000000 0.0
0.35433071 0.00000000 0.0
0.36220472 0.00000000 0.0
0.37007874 0.00000000 0.0
0.37795276 0.00000000 0.0
0.38582677 0.00000000 0.0
0.39370079 0.00000000 0.0
0.40157480 0.00000000 0.0
0.40944882 0.00000000 0.0
0.41732283 0.00000000 0.0
0.42519685 0.00000000 0.0
0.43307087 0.00000000 0.0
0.44094488 0.00000000 0.0
0.44881890 0.00000000 0.0
0.45669291 0.00000000 0.0
0.46456693 0.00000000 0.0
0.47244094 0.00000000 0.0
0.48031496 0.00000000 0.0
0.48818898 0.00000000 0.0
0.49606299 0.00000000 0.0
0.50393701 0.00000000 0.0
0.51181102 0.00000000 0.0
0.51968504 0.00000000 0.0
0.52755906 0.00000000 0.0
0.53543307 0.00000000 0.0
0.54330709 0.00000000 0.0
0.55118110 0.00000000 0.0
0.55905512 0.00000000 0.0
0.56692913 0.00000000 0.0
0.57480315 0.00000000 0.0
0.58267717 0.00000000 0.0
0.59055118 0.00000000 0.0
0.59842520 0.00000000 0.0
0.60629921 0.00000000 0.0
0.61417323 0.00000000 0.0
0.62204724 0.00000000 0.0
0.62992126 0.00000000 0.0
0.63779528 0.00000000 0.0
0.64566929 0.00000000 0.0
0.65354331 0.00000000 0.0
0.66141732 0.00000000 0.0
0.66929134 0.00000000 0.0
0.67716535 0.00000000 0.0
0.68503937 0.00000000 0.0
0.69291339 0.00000000 0.0
0.70078740 0.00000000 0.0
0.70866142 0.00000000 0.0
0.71653543 0.00000000 0.0
0.72440945 0.00000000 0.0
0.73228346 0.00000000 0.0
0.74015748 0.00000000 0.0
0.74803150 0.00000000 0.0
0.75590551 0.00000000 0.0
0.76377953 0.00000000 0.0
0.77165354 0.00000000 0.0
0.77952756 0.00000000 0.0
0.78740157 0.00000000 0.0
0.79527559 0.00000000 0.0
0.80314961 0.00000000 0.0
0.81102362 0.00000000 0.0
0.81889764 0.00000000 0.0
0.82677165 0.00000000 0.0
0.83464567 0.00000000 0.0
0.84251969 0.00000000 0.0
0.85039370 0.00000000 0.0
0.85826772 0.00000000 0.0
0.86614173 0.00000000 0.0
0.87401575 0.00000000 0.0
0.88188976 0.00000000 0.0
0.88976378 0.00000000 0.0
0.89763780 0.00000000 0.0
0.90551181 0.00000000 0.0
0.91338583 0.00000000 0.0
0.92125984 0.00000000 0.0
0.92913386 0.00000000 0.0
0.93700787 0.00000000 0.0
0.94488189 0.00000000 0.0
0.95275591 0.00000000 0.0
0.96062992 0.00000000 0.0
0.96850394 0.00000000 0.0
0.97637795 0.00000000 0.0
0.98425197 0.00000000 0.0
0.99212598 0.00000000 0.0
1.00000000 0.00000000 0.0
0.00000000 0.00787402 0.0
0.00787402 0.00787402 0.0
0.01574803 0.00787402 0.0
0.02362205 0.00787402 0.0
0.03149606 0.00787402 0.0
0.03937008 0.00787402 0.0
0.04724409 0.00787402 0.0
0.05511811 0.00787402 0.0
0.06299213 0.00787402 0.0
0.07086614 0.00787402 0.0
0.07874016 0.00787402 0.0
0.08661417 0.00787402 0.0
0.09448819 0.00787402 0.0
0.10236220 0.00787402 0.0
0.11023622 0.00787402 0.0
0.11811024 0.00787402 0.0
0.12598425 0.00787402 0.0
0.13385827 0.00787402 0.0
0.14173228 0.00787402 0.0
0.14960630 0.00787402 0.0
0.15748031 0.00787402 0.0
0.16535433 0.00787402 0.0
0.17322835 0.00787402 0.0
0.18110236 0.00787402 0.0
0.18897638 0.00787402 0.0
0.19685039 0.00787402 0.0
0.20472441 0.00787402 0.0
0.21259843 0.00787402 0.0
0.22047244 0.00787402 0.0
0.22834646 0.00787402 0.0
0.23622047 0.00787402 0.0
0.24409449 0.00787402 0.0
0.25196850 0.00787402 0.0
0.25984252 0.00787402 0.0
0.26771654 0.00787402 0.0
0.27559055 0.00787402 0.0
0.28346457 0.00787402 0.0
0.29133858 0.00787402 0.0
0.29921260 0.00787402 0.0
0.30708661 0.00787402 0.0
0.31496063 0.00787402 0.0
0.32283465 0.00787402 0.0
0.33070866 0.00787402 0.0
0.33858268 0.00787402 0.0
0.34645669 0.00787402 0.0
0.35433071 0.00787402 0.0
0.36220472 0.00787402 0.0
0.37007874 0.00787402 0.0
0.37795276 0.00787402 0.0
0.38582677 0.00787402 0.0
0.39370079 0.00787402 0.0
0.40157480 0.00787402 0.0
0.40944882 0.00787402 0.0
0.41732283 0.00787402 0.0
0.42519685 0.00787402 0.0
0.43307087 0.00787402 0.0
0.44094488 0.00787402 0.0
0.44881890 0.00787402 0.0
0.45669291 0.00787402 0.0
0.46456693 0.00787402 0.0
0.47244094 0.00787402 0.0
0.48031496 0.00787402 0.0
0.48818898 0.00787402 0.0
0.49606299 0.00787402 0.0
0.50393701 0.00787402 0.0
0.51181102 0.00787402 0.0
0.51968504 0.00787402 0.0
0.52755906 0.00787402 0.0
0.53543307 0.00787402 0.0
0.54330709 0.00787402 0.0
0.55118110 0.00787402 0.0
0.55905512 0.00787402 0.0
0.56692913 0.00787402 0.0
0.57480315 0.00787402 0.0
0.58267717 0.00787402 0.0
0.59055118 0.00787402 0.0
0.59842520 0.00787402 0.0
0.60629921 0.00787402 0.0
0.61417323 0.00787402 0.0
0.62204724 0.00787402 0.0
0.62992126 0.00787402 0.0
0.63779528 0.00787402 0.0
0.64566929 0.00787402 0.0
0.65354331 0.00787402 0.0
0.66141732 0.00787402 0.0
0.66929134 0.00787402 0.0
0.67716535 0.00787402 0.0
0.68503937 0.00787402 0.0
0.69291339 0.00787402 0.0
0.70078740 0.00787402 0.0
0.70866142 0.00787402 0.0
0.71653543 0.00787402 0.0
0.72440945 0.00787402 0.0
0.73228346 0.00787402 0.0
0.74015748 0.00787402 0.0
0.74803150 0.00787402 0.0
0.75590551 0.00787402 0.0
0.76377953 0.00787402 0.0
0.77165354 0.00787402 0.0
0.77952756 0.00787402 0.0
0.78740157 0.00787402 0.0
0.79527559 0.00787402 0.0
0.80314961 0.00787402 0.0
0.81102362 0.00787402 0.0
0.81889764 0.00787402 0.0
0.82677165 0.00787402 0.0
0.83464567 0.00787402 0.0
0.84251969 0.00787402 0.0
0.85039370 0.00787402 0.0
0.85826772 0.00787402 0.0
0.86614173 0.00787402 0.0
0.87401575 0.00787402 0.0
0.88188976 0.00787402 0.0
0.88976378 0.00787402 0.0
0.89763780 0.00787402 0.0
0.90551181 0.00787402 0.0
0.91338583 0.00787402 0.0
0.92125984 0.00787402 0.0
0.92913386 0.00787402 0.0
0.93700787 0.00787402 0.0
0.94488189 0.00787402 0.0
0.95275591 0.00787402 0.0
0.96062992 0.00787402 0.0
0.96850394 0.00787402 0.0
0.97637795 0.00787402 0.0
0.98425197 0.00787402 0.0
0.99212598 0.00787402 0.0
1.00000000 0.00787402 0.0
0.00000000 0.01574803 0.0
0.00787402 0.01574803 0.0
0.01574803 0.01574803 0.0
0.02362205 0.01574803 0.0
0.03149606 0.01574803 0.0
0.03937008 0.01574803 0.0
0.04724409 0.01574803 0.0
0.05511811 0.01574803 0.0
0.06299213 0.01574803 0.0
0.07086614 0.01574803 0.0
0.07874016 0.01574803 0.0
0.08661417 0.01574803 0.0
0.09448819 0.01574803 0.0
0.10236220 0.01574803 0.0
0.11023622 0.01574803 0.0
0.11811024 0.01574803 0.0
0.12598425 0.01574803 0.0
0.13385827 0.01574803 0.0
0.14173228 0.01574803 0.0
0.14960630 0.01574803 0.0
0.15748031 0.01574803 0.0
0.16535433 0.01574803 0.0
0.17322835 0.01574803 0.0
0.18110236 0.01574803 0.0
0.18897638 0.01574803 0.0
0.19685039 0.01574803 0.0
0.20472441 0.01574803 0.0
0.21259843 0.01574803 0.0
0.22047244 0.01574803 0.0
0.22834646 0.01574803 0.0
0.23622047 0.01574803 0.0
0.24409449 0.01574803 0.0
0.25196850 0.01574803 0.0
0.25984252 0.01574803 0.0
0.26771654 0.01574803 0.0
0.27559055 0.01574803 0.0
0.28346457 0.01574803 0.0
0.29133858 0.01574803 0.0
0.29921260 0.01574803 0.0
0.30708661 0.01574803 0.0
0.31496063 0.01574803 0.0
0.32283465 0.01574803 0.0
0.33070866 0.01574803 0.0
0.33858268 0.01574803 0.0
0.34645669 0.01574803 0.0
0.35433071 0.01574803 0.0
0.36220472 0.01574803 0.0
0.37007874 0.01574803 0.0
0.37795276 0.01574803 0.0
0.38582677 0.01574803 0.0
0.39370079 0.01574803 0.0
0.40157480 0.01574803 0.0
0.40944882 0.01574803 0.0
0.41732283 0.01574803 0.0
0.42519685 0.01574803 0.0
0.43307087 0.01574803 0.0
0.44094488 0.01574803 0.0
0.44881890 0.01574803 0.0
0.45669291 0.01574803 0.0
0.46456693 0.01574803 0.0
0.47244094 0.01574803 0.0
0.48031496 0.01574803 0.0
0.48818898 0.01574803 0.0
0.49606299 0.01574803 0.0
0.50393701 0.01574803 0.0
0.51181102 0.01574803 0.0
0.51968504 0.01574803 0.0
0.52755906 0.01574803 0.0
0.53543307 0.01574803 0.0
0.54330709 0.01574803 0.0
0.55118110 0.01574803 0.0
0.55905512 0.01574803 0.0
0.56692913 0.01574803 0.0
0.57480315 0.01574803 0.0
0.58267717 0.01574803 0.0
0.59055118 0.01574803 0.0
0.59842520 0.01574803 0.0
0.60629921 0.01574803 0.0
0.61417323 0.01574803 0.0
0.62204724 0.01574803 0.0
0.62992126 0.01574803 0.0
0.63779528 0.01574803 0.0
0.64566929 0.01574803 0.0
0.65354331 0.01574803 0.0
0.66141732 0.01574803 0.0
0.66929134 0.01574803 0.0
0.67716535 0.01574803 0.0
0.68503937 0.01574803 0.0
0.69291339 0.01574803 0.0
0.70078740 0.01574803 0.0
0.70866142 0.01574803 0.0
0.71653543 0.01574803 0.0
0.72440945 0.01574803 0.0
0.73228346 0.01574803 0.0
0.74015748 0.01574803 0.0
0.74803150 0.01574803 0.0
0.75590551 0.01574803 0.0
0.76377953 0.01574803 0.0
0.77165354 0.01574803 0.0
0.77952756 0.01574803 0.0
0.78740157 0.01574803 0.0
0.79527559 0.01574803 0.0
0.80314961 0.01574803 0.0
0.81102362 0.01574803 0.0
0.81889764 0.01574803 0.0
0.82677165 0.01574803 0.0
0.83464567 0.01574803 0.0
0.84251969 0.01574803 0.0
0.85039370 0.01574803 0.0
0.85826772 0.01574803 0.0
0.86614173 0.01574803 0.0
0.87401575 0.01574803 0.0
0.88188976 0.01574803 0.0
0.88976378 0.01574803 0.0
0.89763780 0.01574803 0.0
0.90551181 0.01574803 0.0
0.91338583 0.01574803 0.0
0.92125984 0.01574803 0.0
0.92913386 0.01574803 0.0
0.93700787 0.01574803 0.0
0.94488189 0.01574803 0.0
0.95275591 0.01574803 0.0
0.96062992 0.01574803 0.0
[...]
POINT_DATA 16384
VECTORS V float
0.00000000 0.00000000 0.0
0.00000000 0.00000000 0.0
0.00000000 0.00000000 0.0
0.00000000 0.00000000 0.0
0.00000000 0.00000000 0.0
0.00000000 0.00000000 0.0
0.00000000 0.00000000 0.0
0.00000000 0.00000000 0.0
0.00000000 0.00000000 0.0
0.00000000 0.00000000 0.0
0.00000000 0.00000000 0.0
0.00000000 0.00000000 0.0
0.00000000 0.00000000 0.0
0.00000000 0.00000000 0.0
0.00000000 0.00000000 0.0
0.00000000 0.00000000 0.0
0.00000000 0.00000000 0.0
0.00000000 0.00000000 0.0
0.00000000 0.00000000 0.0
0.00000000 0.00000000 0.0
0.00000000 0.00000000 0.0
0.00000000 0.00000000 0.0
0.00000000 0.00000000 0.0
0.00000000 0.00000000 0.0
0.00000000 0.00000000 0.0
0.00000000 0.00000000 0.0
0.00000000 0.00000000 0.0
0.00000000 0.00000000 0.0
0.00000000 0.00000000 0.0
0.00000000 0.00000000 0.0
0.00000000 0.00000000 0.0
0.00000000 0.00000000 0.0
0.00000000 0.00000000 0.0
0.00000000 0.00000000 0.0
0.00000000 0.00000000 0.0
0.00000000 0.00000000 0.0
0.00000000 0.00000000 0.0
0.00000000 0.00000000 0.0
0.00000000 0.00000000 0.0
0.00000000 0.00000000 0.0
0.00000000 0.00000000 0.0
0.00000000 0.00000000 0.0
0.00000000 0.00000000 0.0
0.00000000 0.00000000 0.0
0.00000000 0.00000000 0.0
0.00000000 0.00000000 0.0
0.00000000 0.00000000 0.0
0.00000000 0.00000000 0.0
0.00000000 0.00000000 0.0
0.00000000 0.00000000 0.0
0.00000000 0.00000000 0.0
0.00000000 0.00000000 0.0
0.00000000 0.00000000 0.0
0.00000000 0.00000000 0.0
0.00000000 0.00000000 0.0
0.00000000 0.00000000 0.0
0.00000000 0.00000000 0.0
0.00000000 0.00000000 0.0
0.00000000 0.00000000 0.0
0.00000000 0.00000000 0.0
0.00000000 0.00000000 0.0
0.00000000 0.00000000 0.0
0.00000000 0.00000000 0.0
0.00000000 0.00000000 0.0
0.00000000 0.00000000 0.0
0.00000000 0.00000000 0.0
0.00000000 0.00000000 0.0
0.00000000 0.00000000 0.0
0.00000000 0.00000000 0.0
0.00000000 0.00000000 0.0
0.00000000 0.00000000 0.0
0.00000000 0.00000000 0.0
0.00000000 0.00000000 0.0
0.00000000 0.00000000 0.0
0.00000000 0.00000000 0.0
0.00000000 0.00000000 0.0
0.00000000 0.00000000 0.0
0.00000000 0.00000000 0.0
0.00000000 0.00000000 0.0
0.00000000 0.00000000 0.0
0.00000000 0.00000000 0.0
0.00000000 0.00000000 0.0
0.00000000 0.00000000 0.0
0.00000000 0.00000000 0.0
0.00000000 0.00000000 0.0
0.00000000 0.00000000 0.0
0.00000000 0.00000000 0.0
0.00000000 0.00000000 0.0
0.00000000 0.00000000 0.0
0.00000000 0.00000000 0.0
0.00000000 0.00000000 0.0
0.00000000 0.00000000 0.0
0.00000000 0.00000000 0.0
0.00000000 0.00000000 0.0
0.00000000 0.00000000 0.0
0.00000000 0.00000000 0.0
0.00000000 0.00000000 0.0
0.00000000 0.00000000 0.0
0.00000000 0.00000000 0.0
0.00000000 0.00000000 0.0
0.00000000 0.00000000 0.0
0.00000000 0.00000000 0.0
0.00000000 0.00000000 0.0
0.00000000 0.00000000 0.0
0.00000000 0.00000000 0.0
0.00000000 0.00000000 0.0
0.00000000 0.00000000 0.0
0.00000000 0.00000000 0.0
0.00000000 0.00000000 0.0
0.00000000 0.00000000 0.0
0.00000000 0.00000000 0.0
0.00000000 0.00000000 0.0
0.00000000 0.00000000 0.0
0.00000000 0.00000000 0.0
0.00000000 0.00000000 0.0
0.00000000 0.00000000 0.0
0.00000000 0.00000000 0.0
0.00000000 0.00000000 0.0
0.00000000 0.00000000 0.0
0.00000000 0.00000000 0.0
0.00000000 0.00000000 0.0
0.00000000 0.00000000 0.0
0.00000000 0.00000000 0.0
0.00000000 0.00000000 0.0
0.00000000 0.00000000 0.0
-0.00000000 0.00000000 0.0
-0.00000000 0.00000000 0.0
0.00000000 0.00000000 0.0
0.00000000 0.00000000 0.0
0.00000018 -0.00000037 0.0
0.00000143 -0.00000105 0.0
0.00000364 -0.00000162 0.0
0.00000658 -0.00000199 0.0
0.00000997 -0.00000219 0.0
0.00001356 -0.00000226 0.0
0.00001714 -0.00000221 0.0
0.00002055 -0.00000208 0.0
0.00002367 -0.00000190 0.0
0.00002642 -0.00000167 0.0
0.00002871 -0.00000141 0.0
0.00003053 -0.00000114 0.0
0.00003185 -0.00000086 0.0
0.00003267 -0.00000059 0.0
0.00003297 -0.00000032 0.0
0.00003278 -0.00000007 0.0
0.00003210 0.00000017 0.0
0.00003094 0.00000040 0.0
0.00002932 0.00000063 0.0
0.00002724 0.00000085 0.0
0.00002473 0.00000107 0.0
0.00002177 0.00000129 0.0
0.00001835 0.00000152 0.0
0.00001446 0.00000175 0.0
0.00001008 0.00000200 0.0
0.00000518 0.00000226 0.0
-0.00000025 0.00000253 0.0
-0.00000626 0.00000282 0.0
-0.00001286 0.00000313 0.0
-0.00002007 0.00000347 0.0
-0.00002793 0.00000381 0.0
-0.00003649 0.00000417 0.0
-0.00004575 0.00000455 0.0
-0.00005575 0.00000494 0.0
-0.00006648 0.00000534 0.0
-0.00007798 0.00000575 0.0
-0.00009022 0.00000616 0.0
-0.00010323 0.00000657 0.0
-0.00011697 0.00000698 0.0
-0.00013142 0.00000739 0.0
-0.00014657 0.00000778 0.0
-0.00016238 0.00000815 0.0
-0.00017880 0.00000851 0.0
-0.00019577 0.00000883 0.0
-0.00021324 0.00000912 0.0
-0.00023111 0.00000937 0.0
-0.00024931 0.00000958 0.0
-0.00026773 0.00000974 0.0
-0.00028625 0.00000984 0.0
-0.00030476 0.00000987 0.0
-0.00032315 0.00000984 0.0
-0.00034128 0.00000974 0.0
-0.00035901 0.00000956 0.0
-0.00037620 0.00000930 0.0
-0.00039270 0.00000896 0.0
-0.00040835 0.00000853 0.0
-0.00042300 0.00000801 0.0
-0.00043649 0.00000741 0.0
-0.00044867 0.00000672 0.0
-0.00045941 0.00000594 0.0
-0.00046857 0.00000508 0.0
-0.00047600 0.00000414 0.0
-0.00048160 0.00000312 0.0
-0.00048524 0.00000204 0.0
-0.00048680 0.00000090 0.0
-0.00048623 -0.00000029 0.0
-0.00048347 -0.00000153 0.0
-0.00047845 -0.00000280 0.0
-0.00047116 -0.00000408 0.0
-0.00046160 -0.00000537 0.0
-0.00044975 -0.00000665 0.0
-0.00043569 -0.00000790 0.0
-0.00041947 -0.00000912 0.0
-0.00040119 -0.00001028 0.0
-0.00038098 -0.00001137 0.0
-0.00035896 -0.00001237 0.0
-0.00033529 -0.00001327 0.0
-0.00031017 -0.00001406 0.0
-0.00028381 -0.00001472 0.0
-0.00025645 -0.00001524 0.0
-0.00022829 -0.00001562 0.0
-0.00019962 -0.00001584 0.0
-0.00017069 -0.00001591 0.0
-0.00014177 -0.00001581 0.0
-0.00011311 -0.00001556 0.0
-0.00008500 -0.00001516 0.0
-0.00005768 -0.00001460 0.0
-0.00003140 -0.00001391 0.0
-0.00000637 -0.00001309 0.0
0.00001720 -0.00001216 0.0
0.00003912 -0.00001114 0.0
0.00005924 -0.00001005 0.0
0.00007744 -0.00000891 0.0
0.00009362 -0.00000772 0.0
0.00010772 -0.00000651 0.0
0.00011973 -0.00000531 0.0
0.00012963 -0.00000412 0.0
0.00013747 -0.00000298 0.0
0.00014328 -0.00000188 0.0
0.00014717 -0.00000084 0.0
0.00014923 0.00000012 0.0
0.00014960 0.00000100 0.0
0.00014841 0.00000180 0.0
0.00014580 0.00000250 0.0
0.00014195 0.00000311 0.0
0.00013698 0.00000363 0.0
0.00013106 0.00000407 0.0
0.00012435 0.00000442 0.0
0.00011700 0.00000469 0.0
0.00010912 0.00000490 0.0
0.00010086 0.00000504 0.0
0.00009231 0.00000512 0.0
0.00008360 0.00000515 0.0
0.00007482 0.00000513 0.0
0.00006604 0.00000508 0.0
0.00005734 0.00000499 0.0
0.00004882 0.00000486 0.0
0.00004054 0.00000469 0.0
0.00003261 0.00000446 0.0
0.00002516 0.00000416 0.0
0.00001830 0.00000377 0.0
0.00001222 0.00000327 0.0
0.00000714 0.00000262 0.0
0.00000327 0.00000182 0.0
0.00000080 0.00000091 0.0
-0.00000020 0.00000009 0.0
0.00000000 -0.00000000 0.0
0.00000000 -0.00000000 0.0
0.00000079 -0.00000171 0.0
0.00000331 -0.00000374 0.0
0.00000728 -0.00000543 0.0
0.00001233 -0.00000659 0.0
0.00001805 -0.00000724 0.0
0.00002406 -0.00000744 0.0
0.00003003 -0.00000727 0.0
0.00003568 -0.00000681 0.0
0.00004080 -0.00000614 0.0
0.00004524 -0.00000531 0.0
0.00004886 -0.00000438 0.0
0.00005158 -0.00000339 0.0
0.00005339 -0.00000237 0.0
0.00005423 -0.00000134 0.0
0.00005410 -0.00000033 0.0
0.00005300 0.00000065 0.0
0.00005096 0.00000161 0.0
0.00004798 0.00000253 0.0
0.00004406 0.00000345 0.0
0.00003923 0.00000435 0.0
0.00003351 0.00000524 0.0
0.00002686 0.00000615 0.0
0.00001927 0.00000709 0.0
0.00001071 0.00000805 0.0
0.00000114 0.00000905 0.0
-0.00000946 0.00001011 0.0
-0.00002117 0.00001122 0.0
-0.00003401 0.00001239 0.0
-0.00004803 0.00001361 0.0
-0.00006328 0.00001490 0.0
-0.00007981 0.00001625 0.0
-0.00009768 0.00001764 0.0
-0.00011689 0.00001908 0.0
-0.00013750 0.00002055 0.0
-0.00015951 0.00002205 0.0
-0.00018292 0.00002356 0.0
-0.00020772 0.00002508 0.0
-0.00023389 0.00002658 0.0
-0.00026138 0.00002805 0.0
-0.00029013 0.00002947 0.0
-0.00032008 0.00003083 0.0
-0.00035114 0.00003210 0.0
-0.00038320 0.00003327 0.0
-0.00041612 0.00003431 0.0
-0.00044978 0.00003521 0.0
-0.00048399 0.00003594 0.0
-0.00051859 0.00003649 0.0
-0.00055336 0.00003683 0.0
-0.00058808 0.00003695 0.0
-0.00062253 0.00003682 0.0
-0.00065649 0.00003644 0.0
-0.00068969 0.00003578 0.0
-0.00072188 0.00003484 0.0
-0.00075281 0.00003361 0.0
-0.00078219 0.00003208 0.0
-0.00080977 0.00003024 0.0
-0.00083527 0.00002809 0.0
-0.00085843 0.00002564 0.0
-0.00087901 0.00002290 0.0
-0.00089677 0.00001987 0.0
-0.00091149 0.00001656 0.0
-0.00092296 0.00001300 0.0
-0.00093099 0.00000921 0.0
-0.00093541 0.00000520 0.0
-0.00093607 0.00000102 0.0
-0.00093287 -0.00000332 0.0
-0.00092573 -0.00000776 0.0
-0.00091460 -0.00001228 0.0
-0.00089946 -0.00001683 0.0
-0.00088035 -0.00002137 0.0
-0.00085730 -0.00002584 0.0
-0.00083041 -0.00003021 0.0
-0.00079983 -0.00003442 0.0
-0.00076573 -0.00003842 0.0
-0.00072833 -0.00004216 0.0
-0.00068787 -0.00004559 0.0
-0.00064463 -0.00004867 0.0
-0.00059894 -0.00005135 0.0
-0.00055117 -0.00005360 0.0
-0.00050167 -0.00005538 0.0
-0.00045086 -0.00005667 0.0
-0.00039914 -0.00005744 0.0
-0.00034697 -0.00005768 0.0
-0.00029479 -0.00005739 0.0
-0.00024301 -0.00005657 0.0
-0.00019209 -0.00005523 0.0
-0.00014247 -0.00005339 0.0
-0.00009455 -0.00005109 0.0
-0.00004870 -0.00004835 0.0
-0.00000527 -0.00004523 0.0
0.00003540 -0.00004178 0.0
0.00007305 -0.00003805 0.0
0.00010744 -0.00003411 0.0
0.00013841 -0.00003001 0.0
0.00016581 -0.00002582 0.0
0.00018957 -0.00002161 0.0
0.00020967 -0.00001743 0.0
0.00022611 -0.00001334 0.0
0.00023898 -0.00000939 0.0
0.00024838 -0.00000564 0.0
0.00025447 -0.00000211 0.0
0.00025743 0.00000115 0.0
0.00025748 0.00000413 0.0
0.00025487 0.00000682 0.0
0.00024984 0.00000918 0.0
0.00024266 0.00001124 0.0
0.00023358 0.00001299 0.0
0.00022289 0.00001445 0.0
0.00021082 0.00001562 0.0
0.00019764 0.00001654 0.0
0.00018357 0.00001721 0.0
0.00016883 0.00001766 0.0
0.00015362 0.00001792 0.0
0.00013814 0.00001799 0.0
0.00012255 0.00001790 0.0
0.00010701 0.00001765 0.0
0.00009171 0.00001723 0.0
0.00007679 0.00001664 0.0
0.00006246 0.00001583 0.0
0.00004894 0.00001476 0.0
0.00003648 0.00001338 0.0
0.00002535 0.00001162 0.0
0.00001591 0.00000943 0.0
0.00000847 0.00000680 0.0
0.00000329 0.00000390 0.0
0.00000053 0.00000122 0.0
0.00000000 -0.00000000 0.0
0.00000000 -0.00000000 0.0
0.00000134 -0.00000396 0.0
0.00000494 -0.00000782 0.0
0.00001026 -0.00001091 0.0
0.00001682 -0.00001303 0.0
0.00002411 -0.00001420 0.0
0.00003166 -0.00001451 0.0
0.00003907 -0.00001411 0.0
0.00004600 -0.00001314 0.0
0.00005218 -0.00001172 0.0
0.00005738 -0.00000998 0.0
0.00006143 -0.00000802 0.0
0.00006423 -0.00000592 0.0
0.00006573 -0.00000373 0.0
0.00006585 -0.00000152 0.0
0.00006457 0.00000068 0.0
0.00006188 0.00000285 0.0
0.00005780 0.00000497 0.0
0.00005233 0.00000706 0.0
0.00004547 0.00000912 0.0
0.00003722 0.00001117 0.0
0.00002760 0.00001323 0.0
0.00001657 0.00001532 0.0
0.00000409 0.00001745 0.0
-0.00000987 0.00001965 0.0
-0.00002536 0.00002195 0.0
-0.00004244 0.00002434 0.0
-0.00006116 0.00002685 0.0
-0.00008160 0.00002947 0.0
-0.00010380 0.00003221 0.0
-0.00012781 0.00003507 0.0
-0.00015371 0.00003803 0.0
-0.00018153 0.00004108 0.0
-0.00021130 0.00004420 0.0
-0.00024304 0.00004737 0.0
-0.00027675 0.00005058 0.0
-0.00031239 0.00005378 0.0
-0.00034995 0.00005696 0.0
-0.00038934 0.00006007 0.0
-0.00043049 0.00006308 0.0
-0.00047327 0.00006596 0.0
-0.00051756 0.00006866 0.0
-0.00056320 0.00007114 0.0
-0.00061001 0.00007336 0.0
-0.00065778 0.00007528 0.0
-0.00070627 0.00007686 0.0
-0.00075524 0.00007805 0.0
-0.00080439 0.00007882 0.0
-0.00085345 0.00007912 0.0
-0.00090207 0.00007893 0.0
-0.00094994 0.00007820 0.0
-0.00099673 0.00007692 0.0
-0.00104209 0.00007506 0.0
-0.00108567 0.00007260 0.0
-0.00112713 0.00006953 0.0
-0.00116611 0.00006584 0.0
-0.00120226 0.00006154 0.0
-0.00123525 0.00005663 0.0
-0.00126475 0.00005112 0.0
-0.00129047 0.00004503 0.0
-0.00131213 0.00003839 0.0
-0.00132946 0.00003124 0.0
-0.00134223 0.00002361 0.0
-0.00135024 0.00001555 0.0
-0.00135330 0.00000712 0.0
-0.00135127 -0.00000163 0.0
-0.00134405 -0.00001062 0.0
-0.00133159 -0.00001978 0.0
-0.00131386 -0.00002904 0.0
-0.00129087 -0.00003831 0.0
-0.00126270 -0.00004750 0.0
-0.00122942 -0.00005653 0.0
-0.00119121 -0.00006530 0.0
-0.00114826 -0.00007372 0.0
-0.00110081 -0.00008170 0.0
-0.00104915 -0.00008914 0.0
-0.00099359 -0.00009597 0.0
-0.00093450 -0.00010208 0.0
-0.00087230 -0.00010740 0.0
-0.00080743 -0.00011187 0.0
-0.00074036 -0.00011542 0.0
-0.00067157 -0.00011800 0.0
-0.00060160 -0.00011957 0.0
-0.00053099 -0.00012010 0.0
-0.00046027 -0.00011960 0.0
-0.00039000 -0.00011805 0.0
-0.00032072 -0.00011548 0.0
-0.00025298 -0.00011194 0.0
-0.00018728 -0.00010746 0.0
-0.00012412 -0.00010213 0.0
-0.00006394 -0.00009602 0.0
-0.00000718 -0.00008923 0.0
0.00004580 -0.00008185 0.0
0.00009466 -0.00007400 0.0
0.00013918 -0.00006581 0.0
0.00017912 -0.00005740 0.0
0.00021436 -0.00004887 0.0
0.00024481 -0.00004036 0.0
0.00027046 -0.00003198 0.0
0.00029135 -0.00002383 0.0
0.00030758 -0.00001601 0.0
0.00031930 -0.00000861 0.0
0.00032673 -0.00000169 0.0
0.00033010 0.00000470 0.0
0.00032970 0.00001050 0.0
0.00032584 0.00001569 0.0
0.00031884 0.00002026 0.0
0.00030904 0.00002421 0.0
0.00029678 0.00002755 0.0
0.00028239 0.00003032 0.0
0.00026623 0.00003253 0.0
0.00024860 0.00003424 0.0
0.00022981 0.00003546 0.0
0.00021015 0.00003624 0.0
0.00018991 0.00003662 0.0
0.00016934 0.00003663 0.0
0.00014869 0.00003626 0.0
0.00012820 0.00003552 0.0
0.00010813 0.00003437 0.0
0.00008875 0.00003276 0.0
0.00007039 0.00003061 0.0
0.00005336 0.00002782 0.0
0.00003802 0.00002431 0.0
0.00002479 0.00001998 0.0
0.00001406 0.00001489 0.0
0.00000618 0.00000926 0.0
0.00000145 0.00000380 0.0
0.00000000 -0.00000000 0.0
0.00000000 -0.00000000 0.0
0.00000172 -0.00000693 0.0
0.00000611 -0.00001295 0.0
0.00001238 -0.00001759 0.0
0.00001992 -0.00002070 0.0
0.00002814 -0.00002234 0.0
0.00003652 -0.00002267 0.0
0.00004460 -0.00002189 0.0
0.00005200 -0.00002019 0.0
0.00005841 -0.00001778 0.0
0.00006356 -0.00001484 0.0
0.00006726 -0.00001151 0.0
0.00006937 -0.00000793 0.0
0.00006981 -0.00000419 0.0
0.00006849 -0.00000039 0.0
0.00006536 0.00000341 0.0
0.00006041 0.00000720 0.0
0.00005364 0.00001094 0.0
0.00004504 0.00001464 0.0
0.00003458 0.00001831 0.0
0.00002227 0.00002198 0.0
0.00000809 0.00002569 0.0
-0.00000799 0.00002945 0.0
-0.00002603 0.00003330 0.0
-0.00004607 0.00003728 0.0
-0.00006818 0.00004140 0.0
-0.00009242 0.00004569 0.0
-0.00011886 0.00005015 0.0
-0.00014757 0.00005481 0.0
-0.00017862 0.00005964 0.0
-0.00021203 0.00006464 0.0
-0.00024789 0.00006978 0.0
-0.00028620 0.00007505 0.0
-0.00032700 0.00008041 0.0
-0.00037025 0.00008582 0.0
-0.00041594 0.00009123 0.0
-0.00046400 0.00009659 0.0
-0.00051434 0.00010185 0.0
-0.00056686 0.00010695 0.0
-0.00062138 0.00011183 0.0
-0.00067774 0.00011641 0.0
-0.00073573 0.00012063 0.0
-0.00079511 0.00012442 0.0
-0.00085562 0.00012772 0.0
-0.00091697 0.00013045 0.0
-0.00097882 0.00013254 0.0
-0.00104084 0.00013394 0.0
-0.00110265 0.00013458 0.0
-0.00116387 0.00013440 0.0
-0.00122409 0.00013335 0.0
-0.00128291 0.00013140 0.0
-0.00133992 0.00012851 0.0
-0.00139471 0.00012465 0.0
-0.00144686 0.00011980 0.0
-0.00149598 0.00011396 0.0
-0.00154165 0.00010713 0.0
-0.00158350 0.00009931 0.0
-0.00162117 0.00009054 0.0
-0.00165429 0.00008083 0.0
-0.00168257 0.00007025 0.0
-0.00170573 0.00005883 0.0
-0.00172350 0.00004664 0.0
-0.00173566 0.00003375 0.0
-0.00174201 0.00002026 0.0
-0.00174242 0.00000624 0.0
-0.00173674 -0.00000821 0.0
-0.00172491 -0.00002298 0.0
-0.00170692 -0.00003794 0.0
-0.00168277 -0.00005298 0.0
-0.00165252 -0.00006797 0.0
-0.00161629 -0.00008278 0.0
-0.00157417 -0.00009727 0.0
-0.00152640 -0.00011131 0.0
-0.00147321 -0.00012475 0.0
-0.00141489 -0.00013745 0.0
-0.00135176 -0.00014929 0.0
-0.00128418 -0.00016013 0.0
-0.00121256 -0.00016984 0.0
-0.00113738 -0.00017830 0.0
-0.00105910 -0.00018542 0.0
-0.00097827 -0.00019110 0.0
-0.00089540 -0.00019527 0.0
-0.00081107 -0.00019787 0.0
-0.00072590 -0.00019885 0.0
-0.00064046 -0.00019820 0.0
-0.00055537 -0.00019593 0.0
-0.00047124 -0.00019206 0.0
-0.00038868 -0.00018663 0.0
-0.00030828 -0.00017973 0.0
-0.00023058 -0.00017146 0.0
-0.00015611 -0.00016192 0.0
-0.00008539 -0.00015127 0.0
-0.00001884 -0.00013965 0.0
0.00004312 -0.00012724 0.0
0.00010016 -0.00011420 0.0
0.00015202 -0.00010073 0.0
0.00019849 -0.00008702 0.0
0.00023940 -0.00007323 0.0
0.00027470 -0.00005957 0.0
0.00030437 -0.00004620 0.0
0.00032848 -0.00003328 0.0
0.00034717 -0.00002094 0.0
0.00036061 -0.00000932 0.0
0.00036903 0.00000150 0.0
0.00037273 0.00001143 0.0
0.00037203 0.00002041 0.0
0.00036730 0.00002842 0.0
0.00035888 0.00003543 0.0
0.00034719 0.00004147 0.0
0.00033262 0.00004655 0.0
0.00031557 0.00005071 0.0
0.00029642 0.00005400 0.0
0.00027555 0.00005648 0.0
0.00025333 0.00005821 0.0
0.00023013 0.00005922 0.0
0.00020627 0.00005955 0.0
0.00018209 0.00005922 0.0
0.00015790 0.00005822 0.0
0.00013404 0.00005651 0.0
0.00011087 0.00005402 0.0
0.00008874 0.00005063 0.0
0.00006808 0.00004621 0.0
0.00004930 0.00004065 0.0
0.00003287 0.00003385 0.0
0.00001923 0.00002585 0.0
0.00000887 0.00001693 0.0
0.00000230 0.00000782 0.0
0.00000000 -0.00000000 0.0
0.00000000 -0.00000000 0.0
0.00000195 -0.00001035 0.0
0.00000681 -0.00001877 0.0
0.00001363 -0.00002501 0.0
0.00002166 -0.00002906 0.0
0.00003025 -0.00003106 0.0
0.00003883 -0.00003125 0.0
0.00004691 -0.00002987 0.0
0.00005407 -0.00002722 0.0
0.00005999 -0.00002355 0.0
0.00006436 -0.00001911 0.0
0.00006698 -0.00001410 0.0
0.00006770 -0.00000870 0.0
0.00006638 -0.00000306 0.0
0.00006293 0.00000271 0.0
0.00005730 0.00000852 0.0
0.00004945 0.00001434 0.0
0.00003934 0.00002013 0.0
0.00002696 0.00002590 0.0
0.00001228 0.00003165 0.0
-0.00000472 0.00003744 0.0
-0.00002407 0.00004328 0.0
-0.00004584 0.00004922 0.0
-0.00007007 0.00005531 0.0
-0.00009684 0.00006158 0.0
-0.00012620 0.00006807 0.0
-0.00015823 0.00007480 0.0
-0.00019301 0.00008178 0.0
-0.00023060 0.00008901 0.0
-0.00027105 0.00009648 0.0
-0.00031439 0.00010416 0.0
-0.00036067 0.00011202 0.0
-0.00040988 0.00012001 0.0
-0.00046202 0.00012807 0.0
-0.00051702 0.00013615 0.0
-0.00057481 0.00014415 0.0
-0.00063526 0.00015201 0.0
-0.00069824 0.00015964 0.0
-0.00076355 0.00016694 0.0
-0.00083098 0.00017382 0.0
-0.00090025 0.00018017 0.0
-0.00097109 0.00018590 0.0
-0.00104318 0.00019091 0.0
-0.00111616 0.00019509 0.0
-0.00118965 0.00019835 0.0
-0.00126324 0.00020060 0.0
-0.00133650 0.00020175 0.0
-0.00140901 0.00020173 0.0
-0.00148028 0.00020046 0.0
-0.00154986 0.00019788 0.0
-0.00161728 0.00019395 0.0
-0.00168210 0.00018864 0.0
-0.00174385 0.00018192 0.0
-0.00180209 0.00017378 0.0
-0.00185640 0.00016423 0.0
-0.00190638 0.00015329 0.0
-0.00195163 0.00014099 0.0
-0.00199180 0.00012737 0.0
-0.00202654 0.00011250 0.0
-0.00205557 0.00009644 0.0
-0.00207864 0.00007929 0.0
-0.00209550 0.00006114 0.0
-0.00210598 0.00004210 0.0
-0.00210990 0.00002229 0.0
-0.00210717 0.00000184 0.0
-0.00209767 -0.00001911 0.0
-0.00208139 -0.00004041 0.0
-0.00205834 -0.00006190 0.0
-0.00202857 -0.00008341 0.0
-0.00199215 -0.00010477 0.0
-0.00194924 -0.00012581 0.0
-0.00189997 -0.00014635 0.0
-0.00184458 -0.00016619 0.0
-0.00178333 -0.00018517 0.0
-0.00171653 -0.00020308 0.0
-0.00164452 -0.00021977 0.0
-0.00156767 -0.00023505 0.0
-0.00148641 -0.00024876 0.0
-0.00140122 -0.00026074 0.0
-0.00131260 -0.00027086 0.0
-0.00122109 -0.00027899 0.0
-0.00112724 -0.00028503 0.0
-0.00103163 -0.00028890 0.0
-0.00093490 -0.00029055 0.0
-0.00083768 -0.00028994 0.0
-0.00074058 -0.00028707 0.0
-0.00064426 -0.00028197 0.0
-0.00054937 -0.00027470 0.0
-0.00045654 -0.00026536 0.0
-0.00036639 -0.00025406 0.0
-0.00027947 -0.00024096 0.0
-0.00019635 -0.00022624 0.0
-0.00011756 -0.00021010 0.0
-0.00004355 -0.00019275 0.0
0.00002527 -0.00017445 0.0
0.00008858 -0.00015543 0.0
0.00014607 -0.00013595 0.0
0.00019754 -0.00011627 0.0
0.00024285 -0.00009665 0.0
0.00028191 -0.00007731 0.0
0.00031476 -0.00005849 0.0
0.00034148 -0.00004040 0.0
0.00036218 -0.00002321 0.0
0.00037708 -0.00000709 0.0