# vtk DataFile Version 4.2
Velocity and Pressure Data
ASCII
DATASET STRUCTURED_GRID
DIMENSIONS 128 128 1
POINTS 16384 float
0.00000000 0.00000000 0.0
0.00787402 0.00000000 0.0
0.01574803 0.00000000 0.0
0.02362205 0.00000000 0.0
0.03149606 0.00000000 0.0
0.03937008 0.00000000 0.0
0.04724409 0.00000000 0.0
0.05511811 0.00000000 0.0
0.06299213 0.00000000 0.0
0.07086614 0.00000000 0.0
0.07874016 0.00000000 0.0
0.08661417 0.00000000 0.0
0.09448819 0.00000000 0.0
0.10236220 0.00000000 0.0
0.11023622 0.00000000 0.0
0.11811024 0.00000000 0.0
0.12598425 0.00000000 0.0
0.13385827 0.00000000 0.0
0.14173228 0.00000000 0.0
0.14960630 0.00000000 0.0
0.15748031 0.00000000 0.0
0.16535433 0.00000000 0.0
0.17322835 0.00000000 0.0
0.18110236 0.00000000 0.0
0.18897638 0.00000000 0.0
0.19685039 0.00000000 0.0
0.20472441 0.00000000 0.0
0.21259843 0.00000000 0.0
0.22047244 0.00000000 0.0
0.22834646 0.00000000 0.0
0.23622047 0.00000000 0.0
0.24409449 0.00000000 0.0
0.25196850 0.00000000 0.0
0.25984252 0.00000000 0.0
0.26771654 0.00000000 0.0
0.27559055 0.00000000 0.0
0.28346457 0.00000000 0.0
0.29133858 0.00000000 0.0
0.29921260 0.00000000 0.0
0.30708661 0.00000000 0.0
0.31496063 0.00000000 0.0
0.32283465 0.00000000 0.0
0.33070866 0.00000000 0.0
0.33858268 0.00000000 0.0
0.34645669 0.00000000 0.0
0.35433071 0.00000000 0.0
0.36220472 0.00000000 0.0
0.37007874 0.00000000 0.0
0.37795276 0.00000000 0.0
0.38582677 0.00000000 0.0
0.39370079 0.00000000 0.0
0.40157480 0.00000000 0.0
0.40944882 0.00000000 0.0
0.41732283 0.00000000 0.0
0.42519685 0.00000000 0.0
0.43307087 0.00000000 0.0
0.44094488 0.00000000 0.0
0.44881890 0.00000000 0.0
0.45669291 0.00000000 0.0
0.46456693 0.00000000 0.0
0.47244094 0.00000000 0.0
0.48031496 0.00000000 0.0
0.48818898 0.00000000 0.0
0.49606299 0.00000000 0.0
0.50393701 0.00000000 0.0
0.51181102 0.00000000 0.0
0.51968504 0.00000000 0.0
0.52755906 0.00000000 0.0
0.53543307 0.00000000 0.0
0.54330709 0.00000000 0.0
0.55118110 0.00000000 0.0
0.55905512 0.00000000 0.0
0.56692913 0.00000000 0.0
0.57480315 0.00000000 0.0
0.58267717 0.00000000 0.0
0.59055118 0.00000000 0.0
0.59842520 0.00000000 0.0
0.60629921 0.00000000 0.0
0.61417323 0.00000000 0.0
0.62204724 0.00000000 0.0
0.62992126 0.00000000 0.0
0.63779528 0.00000000 0.0
0.64566929 0.00000000 0.0
0.65354331 0.00000000 0.0
0.66141732 0.00000000 0.0
0.66929134 0.00000000 0.0
0.67716535 0.00000000 0.0
0.68503937 0.00000000 0.0
0.69291339 0.00000000 0.0
0.70078740 0.00000000 0.0
0.70866142 0.00000000 0.0
0.71653543 0.00000000 0.0
0.72440945 0.00000000 0.0
0.73228346 0.00000000 0.0
0.74015748 0.00000000 0.0
0.74803150 0.00000000 0.0
0.75590551 0.00000000 0.0
0.76377953 0.00000000 0.0
0.77165354 0.00000000 0.0
0.77952756 0.00000000 0.0
0.78740157 0.00000000 0.0
0.79527559 0.00000000 0.0
0.80314961 0.00000000 0.0
0.81102362 0.00000000 0.0
0.81889764 0.00000000 0.0
0.82677165 0.00000000 0.0
0.83464567 0.00000000 0.0
0.84251969 0.00000000 0.0
0.85039370 0.00000000 0.0
0.85826772 0.00000000 0.0
0.86614173 0.00000000 0.0
0.87401575 0.00000000 0.0
0.88188976 0.00000000 0.0
0.88976378 0.00000000 0.0
0.89763780 0.00000000 0.0
0.90551181 0.00000000 0.0
0.91338583 0.00000000 0.0
0.92125984 0.00000000 0.0
0.92913386 0.00000000 0.0
0.93700787 0.00000000 0.0
0.94488189 0.00000000 0.0
0.95275591 0.00000000 0.0
0.96062992 0.00000000 0.0
0.96850394 0.00000000 0.0
0.97637795 0.00000000 0.0
0.98425197 0.00000000 0.0
0.99212598 0.00000000 0.0
1.00000000 0.00000000 0.0
0.00000000 0.00787402 0.0
0.00787402 0.00787402 0.0
0.01574803 0.00787402 0.0
0.02362205 0.00787402 0.0
0.03149606 0.00787402 0.0
0.03937008 0.00787402 0.0
0.04724409 0.00787402 0.0
0.05511811 0.00787402 0.0
0.06299213 0.00787402 0.0
0.07086614 0.00787402 0.0
0.07874016 0.00787402 0.0
0.08661417 0.00787402 0.0
0.09448819 0.00787402 0.0
0.10236220 0.00787402 0.0
0.11023622 0.00787402 0.0
0.11811024 0.00787402 0.0
0.12598425 0.00787402 0.0
0.13385827 0.00787402 0.0
0.14173228 0.00787402 0.0
0.14960630 0.00787402 0.0
0.15748031 0.00787402 0.0
0.16535433 0.00787402 0.0
0.17322835 0.00787402 0.0
0.18110236 0.00787402 0.0
0.18897638 0.00787402 0.0
0.19685039 0.00787402 0.0
0.20472441 0.00787402 0.0
0.21259843 0.00787402 0.0
0.22047244 0.00787402 0.0
0.22834646 0.00787402 0.0
0.23622047 0.00787402 0.0
0.24409449 0.00787402 0.0
0.25196850 0.00787402 0.0
0.25984252 0.00787402 0.0
0.26771654 0.00787402 0.0
0.27559055 0.00787402 0.0
0.28346457 0.00787402 0.0
0.29133858 0.00787402 0.0
0.29921260 0.00787402 0.0
0.30708661 0.00787402 0.0
0.31496063 0.00787402 0.0
0.32283465 0.00787402 0.0
0.33070866 0.00787402 0.0
0.33858268 0.00787402 0.0
0.34645669 0.00787402 0.0
0.35433071 0.00787402 0.0
0.36220472 0.00787402 0.0
0.37007874 0.00787402 0.0
0.37795276 0.00787402 0.0
0.38582677 0.00787402 0.0
0.39370079 0.00787402 0.0
0.40157480 0.00787402 0.0
0.40944882 0.00787402 0.0
0.41732283 0.00787402 0.0
0.42519685 0.00787402 0.0
0.43307087 0.00787402 0.0
0.44094488 0.00787402 0.0
0.44881890 0.00787402 0.0
0.45669291 0.00787402 0.0
0.46456693 0.00787402 0.0
0.47244094 0.00787402 0.0
0.48031496 0.00787402 0.0
0.48818898 0.00787402 0.0
0.49606299 0.00787402 0.0
0.50393701 0.00787402 0.0
0.51181102 0.00787402 0.0
0.51968504 0.00787402 0.0
0.52755906 0.00787402 0.0
0.53543307 0.00787402 0.0
0.54330709 0.00787402 0.0
0.55118110 0.00787402 0.0
0.55905512 0.00787402 0.0
0.56692913 0.00787402 0.0
0.57480315 0.00787402 0.0
0.58267717 0.00787402 0.0
0.59055118 0.00787402 0.0
0.59842520 0.00787402 0.0
0.60629921 0.00787402 0.0
0.61417323 0.00787402 0.0
0.62204724 0.00787402 0.0
0.62992126 0.00787402 0.0
0.63779528 0.00787402 0.0
0.64566929 0.00787402 0.0
0.65354331 0.00787402 0.0
0.66141732 0.00787402 0.0
0.66929134 0.00787402 0.0
0.67716535 0.00787402 0.0
0.68503937 0.00787402 0.0
0.69291339 0.00787402 0.0
0.70078740 0.00787402 0.0
0.70866142 0.00787402 0.0
0.71653543 0.00787402 0.0
0.72440945 0.00787402 0.0
0.73228346 0.00787402 0.0
0.74015748 0.00787402 0.0
0.74803150 0.00787402 0.0
0.75590551 0.00787402 0.0
0.76377953 0.00787402 0.0
0.77165354 0.00787402 0.0
0.77952756 0.00787402 0.0
0.78740157 0.00787402 0.0
0.79527559 0.00787402 0.0
0.80314961 0.00787402 0.0
0.81102362 0.00787402 0.0
0.81889764 0.00787402 0.0
0.82677165 0.00787402 0.0
0.83464567 0.00787402 0.0
0.84251969 0.00787402 0.0
0.85039370 0.00787402 0.0
0.85826772 0.00787402 0.0
0.86614173 0.00787402 0.0
0.87401575 0.00787402 0.0
0.88188976 0.00787402 0.0
0.88976378 0.00787402 0.0
0.89763780 0.00787402 0.0
0.90551181 0.00787402 0.0
0.91338583 0.00787402 0.0
0.92125984 0.00787402 0.0
0.92913386 0.00787402 0.0
0.93700787 0.00787402 0.0
0.94488189 0.00787402 0.0
0.95275591 0.00787402 0.0
0.96062992 0.00787402 0.0
0.96850394 0.00787402 0.0
0.97637795 0.00787402 0.0
0.98425197 0.00787402 0.0
0.99212598 0.00787402 0.0
1.00000000 0.00787402 0.0
0.00000000 0.01574803 0.0
0.00787402 0.01574803 0.0
0.01574803 0.01574803 0.0
0.02362205 0.01574803 0.0
0.03149606 0.01574803 0.0
0.03937008 0.01574803 0.0
0.04724409 0.01574803 0.0
0.05511811 0.01574803 0.0
0.06299213 0.01574803 0.0
0.07086614 0.01574803 0.0
0.07874016 0.01574803 0.0
0.08661417 0.01574803 0.0
0.09448819 0.01574803 0.0
0.10236220 0.01574803 0.0
0.11023622 0.01574803 0.0
0.11811024 0.01574803 0.0
0.12598425 0.01574803 0.0
0.13385827 0.01574803 0.0
0.14173228 0.01574803 0.0
0.14960630 0.01574803 0.0
0.15748031 0.01574803 0.0
0.16535433 0.01574803 0.0
0.17322835 0.01574803 0.0
0.18110236 0.01574803 0.0
0.18897638 0.01574803 0.0
0.19685039 0.01574803 0.0
0.20472441 0.01574803 0.0
0.21259843 0.01574803 0.0
0.22047244 0.01574803 0.0
0.22834646 0.01574803 0.0
0.23622047 0.01574803 0.0
0.24409449 0.01574803 0.0
0.25196850 0.01574803 0.0
0.25984252 0.01574803 0.0
0.26771654 0.01574803 0.0
0.27559055 0.01574803 0.0
0.28346457 0.01574803 0.0
0.29133858 0.01574803 0.0
0.29921260 0.01574803 0.0
0.30708661 0.01574803 0.0
0.31496063 0.01574803 0.0
0.32283465 0.01574803 0.0
0.33070866 0.01574803 0.0
0.33858268 0.01574803 0.0
0.34645669 0.01574803 0.0
0.35433071 0.01574803 0.0
0.36220472 0.01574803 0.0
0.37007874 0.01574803 0.0
0.37795276 0.01574803 0.0
0.38582677 0.01574803 0.0
0.39370079 0.01574803 0.0
0.40157480 0.01574803 0.0
0.40944882 0.01574803 0.0
0.41732283 0.01574803 0.0
0.42519685 0.01574803 0.0
0.43307087 0.01574803 0.0
0.44094488 0.01574803 0.0
0.44881890 0.01574803 0.0
0.45669291 0.01574803 0.0
0.46456693 0.01574803 0.0
0.47244094 0.01574803 0.0
0.48031496 0.01574803 0.0
0.48818898 0.01574803 0.0
0.49606299 0.01574803 0.0
0.50393701 0.01574803 0.0
0.51181102 0.01574803 0.0
0.51968504 0.01574803 0.0
0.52755906 0.01574803 0.0
0.53543307 0.01574803 0.0
0.54330709 0.01574803 0.0
0.55118110 0.01574803 0.0
0.55905512 0.01574803 0.0
0.56692913 0.01574803 0.0
0.57480315 0.01574803 0.0
0.58267717 0.01574803 0.0
0.59055118 0.01574803 0.0
0.59842520 0.01574803 0.0
0.60629921 0.01574803 0.0
0.61417323 0.01574803 0.0
0.62204724 0.01574803 0.0
0.62992126 0.01574803 0.0
0.63779528 0.01574803 0.0
0.64566929 0.01574803 0.0
0.65354331 0.01574803 0.0
0.66141732 0.01574803 0.0
0.66929134 0.01574803 0.0
0.67716535 0.01574803 0.0
0.68503937 0.01574803 0.0
0.69291339 0.01574803 0.0
0.70078740 0.01574803 0.0
0.70866142 0.01574803 0.0
0.71653543 0.01574803 0.0
0.72440945 0.01574803 0.0
0.73228346 0.01574803 0.0
0.74015748 0.01574803 0.0
0.74803150 0.01574803 0.0
0.75590551 0.01574803 0.0
0.76377953 0.01574803 0.0
0.77165354 0.01574803 0.0
0.77952756 0.01574803 0.0
0.78740157 0.01574803 0.0
0.79527559 0.01574803 0.0
0.80314961 0.01574803 0.0
0.81102362 0.01574803 0.0
0.81889764 0.01574803 0.0
0.82677165 0.01574803 0.0
0.83464567 0.01574803 0.0
0.84251969 0.01574803 0.0
0.85039370 0.01574803 0.0
0.85826772 0.01574803 0.0
0.86614173 0.01574803 0.0
0.87401575 0.01574803 0.0
0.88188976 0.01574803 0.0
0.88976378 0.01574803 0.0
0.89763780 0.01574803 0.0
0.90551181 0.01574803 0.0
0.91338583 0.01574803 0.0
0.92125984 0.01574803 0.0
0.92913386 0.01574803 0.0
0.93700787 0.01574803 0.0
0.94488189 0.01574803 0.0
0.95275591 0.01574803 0.0
0.96062992 0.01574803 0.0
[...]
POINT_DATA 16384
VECTORS V float
0.00000000 0.00000000 0.0
0.00000000 0.00000000 0.0
0.00000000 0.00000000 0.0
0.00000000 0.00000000 0.0
0.00000000 0.00000000 0.0
0.00000000 0.00000000 0.0
0.00000000 0.00000000 0.0
0.00000000 0.00000000 0.0
0.00000000 0.00000000 0.0
0.00000000 0.00000000 0.0
0.00000000 0.00000000 0.0
0.00000000 0.00000000 0.0
0.00000000 0.00000000 0.0
0.00000000 0.00000000 0.0
0.00000000 0.00000000 0.0
0.00000000 0.00000000 0.0
0.00000000 0.00000000 0.0
0.00000000 0.00000000 0.0
0.00000000 0.00000000 0.0
0.00000000 0.00000000 0.0
0.00000000 0.00000000 0.0
0.00000000 0.00000000 0.0
0.00000000 0.00000000 0.0
0.00000000 0.00000000 0.0
0.00000000 0.00000000 0.0
0.00000000 0.00000000 0.0
0.00000000 0.00000000 0.0
0.00000000 0.00000000 0.0
0.00000000 0.00000000 0.0
0.00000000 0.00000000 0.0
0.00000000 0.00000000 0.0
0.00000000 0.00000000 0.0
0.00000000 0.00000000 0.0
0.00000000 0.00000000 0.0
0.00000000 0.00000000 0.0
0.00000000 0.00000000 0.0
0.00000000 0.00000000 0.0
0.00000000 0.00000000 0.0
0.00000000 0.00000000 0.0
0.00000000 0.00000000 0.0
0.00000000 0.00000000 0.0
0.00000000 0.00000000 0.0
-0.00000000 0.00000000 0.0
-0.00000000 0.00000000 0.0
-0.00000000 0.00000000 0.0
-0.00000000 0.00000000 0.0
-0.00000000 0.00000000 0.0
-0.00000000 0.00000000 0.0
-0.00000000 0.00000000 0.0
-0.00000000 0.00000000 0.0
-0.00000000 0.00000000 0.0
-0.00000000 0.00000000 0.0
-0.00000000 0.00000000 0.0
-0.00000000 0.00000000 0.0
-0.00000000 0.00000000 0.0
-0.00000000 0.00000000 0.0
-0.00000000 0.00000000 0.0
-0.00000000 0.00000000 0.0
-0.00000000 0.00000000 0.0
-0.00000000 0.00000000 0.0
-0.00000000 0.00000000 0.0
-0.00000000 0.00000000 0.0
-0.00000000 0.00000000 0.0
-0.00000000 0.00000000 0.0
-0.00000000 0.00000000 0.0
-0.00000000 0.00000000 0.0
-0.00000000 0.00000000 0.0
-0.00000000 0.00000000 0.0
-0.00000000 0.00000000 0.0
-0.00000000 0.00000000 0.0
-0.00000000 0.00000000 0.0
-0.00000000 0.00000000 0.0
-0.00000000 0.00000000 0.0
-0.00000000 0.00000000 0.0
-0.00000000 0.00000000 0.0
-0.00000000 0.00000000 0.0
-0.00000000 0.00000000 0.0
-0.00000000 0.00000000 0.0
-0.00000000 0.00000000 0.0
-0.00000000 0.00000000 0.0
-0.00000000 0.00000000 0.0
-0.00000000 0.00000000 0.0
-0.00000000 0.00000000 0.0
-0.00000000 0.00000000 0.0
-0.00000000 0.00000000 0.0
-0.00000000 0.00000000 0.0
-0.00000000 0.00000000 0.0
-0.00000000 0.00000000 0.0
-0.00000000 0.00000000 0.0
-0.00000000 0.00000000 0.0
-0.00000000 0.00000000 0.0
-0.00000000 0.00000000 0.0
-0.00000000 0.00000000 0.0
-0.00000000 0.00000000 0.0
0.00000000 0.00000000 0.0
0.00000000 0.00000000 0.0
0.00000000 0.00000000 0.0
0.00000000 0.00000000 0.0
0.00000000 0.00000000 0.0
0.00000000 0.00000000 0.0
0.00000000 0.00000000 0.0
0.00000000 0.00000000 0.0
0.00000000 0.00000000 0.0
0.00000000 0.00000000 0.0
0.00000000 0.00000000 0.0
0.00000000 0.00000000 0.0
0.00000000 0.00000000 0.0
0.00000000 0.00000000 0.0
0.00000000 0.00000000 0.0
0.00000000 0.00000000 0.0
0.00000000 0.00000000 0.0
0.00000000 0.00000000 0.0
0.00000000 0.00000000 0.0
0.00000000 0.00000000 0.0
0.00000000 0.00000000 0.0
0.00000000 0.00000000 0.0
0.00000000 0.00000000 0.0
0.00000000 0.00000000 0.0
0.00000000 0.00000000 0.0
0.00000000 0.00000000 0.0
0.00000000 0.00000000 0.0
0.00000000 0.00000000 0.0
0.00000000 0.00000000 0.0
0.00000000 0.00000000 0.0
0.00000000 0.00000000 0.0
0.00000000 0.00000000 0.0
0.00000000 0.00000000 0.0
0.00000000 0.00000000 0.0
0.00000000 0.00000000 0.0
0.00000006 -0.00000010 0.0
0.00000028 -0.00000019 0.0
0.00000059 -0.00000024 0.0
0.00000095 -0.00000026 0.0
0.00000129 -0.00000024 0.0
0.00000158 -0.00000021 0.0
0.00000180 -0.00000016 0.0
0.00000194 -0.00000011 0.0
0.00000198 -0.00000006 0.0
0.00000192 -0.00000000 0.0
0.00000175 0.00000005 0.0
0.00000148 0.00000011 0.0
0.00000111 0.00000016 0.0
0.00000065 0.00000021 0.0
0.00000009 0.00000026 0.0
-0.00000057 0.00000031 0.0
-0.00000131 0.00000035 0.0
-0.00000213 0.00000039 0.0
-0.00000304 0.00000044 0.0
-0.00000403 0.00000048 0.0
-0.00000510 0.00000052 0.0
-0.00000625 0.00000056 0.0
-0.00000747 0.00000059 0.0
-0.00000877 0.00000063 0.0
-0.00001014 0.00000067 0.0
-0.00001159 0.00000071 0.0
-0.00001311 0.00000075 0.0
-0.00001470 0.00000078 0.0
-0.00001637 0.00000082 0.0
-0.00001811 0.00000086 0.0
-0.00001992 0.00000090 0.0
-0.00002180 0.00000093 0.0
-0.00002375 0.00000097 0.0
-0.00002576 0.00000100 0.0
-0.00002783 0.00000104 0.0
-0.00002996 0.00000107 0.0
-0.00003214 0.00000109 0.0
-0.00003438 0.00000112 0.0
-0.00003665 0.00000114 0.0
-0.00003897 0.00000116 0.0
-0.00004131 0.00000118 0.0
-0.00004368 0.00000119 0.0
-0.00004606 0.00000120 0.0
-0.00004845 0.00000121 0.0
-0.00005083 0.00000121 0.0
-0.00005320 0.00000120 0.0
-0.00005555 0.00000119 0.0
-0.00005786 0.00000117 0.0
-0.00006012 0.00000114 0.0
-0.00006233 0.00000111 0.0
-0.00006446 0.00000107 0.0
-0.00006650 0.00000103 0.0
-0.00006845 0.00000098 0.0
-0.00007028 0.00000092 0.0
-0.00007199 0.00000085 0.0
-0.00007356 0.00000078 0.0
-0.00007498 0.00000070 0.0
-0.00007624 0.00000061 0.0
-0.00007732 0.00000052 0.0
-0.00007821 0.00000042 0.0
-0.00007890 0.00000031 0.0
-0.00007938 0.00000020 0.0
-0.00007964 0.00000008 0.0
-0.00007968 -0.00000004 0.0
-0.00007949 -0.00000016 0.0
-0.00007905 -0.00000029 0.0
-0.00007838 -0.00000042 0.0
-0.00007746 -0.00000055 0.0
-0.00007630 -0.00000068 0.0
-0.00007489 -0.00000081 0.0
-0.00007325 -0.00000094 0.0
-0.00007137 -0.00000106 0.0
-0.00006926 -0.00000118 0.0
-0.00006693 -0.00000130 0.0
-0.00006439 -0.00000141 0.0
-0.00006165 -0.00000151 0.0
-0.00005874 -0.00000160 0.0
-0.00005566 -0.00000169 0.0
-0.00005242 -0.00000176 0.0
-0.00004906 -0.00000183 0.0
-0.00004559 -0.00000188 0.0
-0.00004203 -0.00000193 0.0
-0.00003840 -0.00000196 0.0
-0.00003472 -0.00000197 0.0
-0.00003103 -0.00000198 0.0
-0.00002734 -0.00000197 0.0
-0.00002368 -0.00000195 0.0
-0.00002006 -0.00000192 0.0
-0.00001652 -0.00000187 0.0
-0.00001307 -0.00000181 0.0
-0.00000973 -0.00000175 0.0
-0.00000653 -0.00000167 0.0
-0.00000348 -0.00000158 0.0
-0.00000059 -0.00000148 0.0
0.00000210 -0.00000138 0.0
0.00000461 -0.00000127 0.0
0.00000690 -0.00000115 0.0
0.00000897 -0.00000103 0.0
0.00001082 -0.00000091 0.0
0.00001245 -0.00000079 0.0
0.00001384 -0.00000066 0.0
0.00001499 -0.00000054 0.0
0.00001592 -0.00000041 0.0
0.00001662 -0.00000029 0.0
0.00001708 -0.00000017 0.0
0.00001734 -0.00000006 0.0
0.00001738 0.00000005 0.0
0.00001722 0.00000016 0.0
0.00001687 0.00000025 0.0
0.00001634 0.00000034 0.0
0.00001565 0.00000043 0.0
0.00001480 0.00000050 0.0
0.00001382 0.00000057 0.0
0.00001272 0.00000063 0.0
0.00001152 0.00000067 0.0
0.00001025 0.00000071 0.0
0.00000891 0.00000073 0.0
0.00000755 0.00000074 0.0
0.00000620 0.00000072 0.0
0.00000487 0.00000069 0.0
0.00000362 0.00000064 0.0
0.00000249 0.00000055 0.0
0.00000151 0.00000044 0.0
0.00000076 0.00000029 0.0
0.00000026 0.00000012 0.0
0.00000002 -0.00000002 0.0
0.00000000 0.00000000 0.0
0.00000000 0.00000000 0.0
0.00000014 -0.00000034 0.0
0.00000051 -0.00000059 0.0
0.00000100 -0.00000073 0.0
0.00000153 -0.00000075 0.0
0.00000202 -0.00000069 0.0
0.00000242 -0.00000058 0.0
0.00000269 -0.00000042 0.0
0.00000281 -0.00000023 0.0
0.00000274 -0.00000004 0.0
0.00000250 0.00000017 0.0
0.00000205 0.00000038 0.0
0.00000142 0.00000058 0.0
0.00000060 0.00000078 0.0
-0.00000041 0.00000097 0.0
-0.00000159 0.00000116 0.0
-0.00000296 0.00000134 0.0
-0.00000449 0.00000151 0.0
-0.00000619 0.00000168 0.0
-0.00000805 0.00000184 0.0
-0.00001007 0.00000200 0.0
-0.00001224 0.00000216 0.0
-0.00001457 0.00000231 0.0
-0.00001704 0.00000246 0.0
-0.00001966 0.00000261 0.0
-0.00002243 0.00000276 0.0
-0.00002534 0.00000291 0.0
-0.00002839 0.00000306 0.0
-0.00003159 0.00000320 0.0
-0.00003492 0.00000335 0.0
-0.00003839 0.00000349 0.0
-0.00004200 0.00000363 0.0
-0.00004573 0.00000377 0.0
-0.00004959 0.00000390 0.0
-0.00005357 0.00000402 0.0
-0.00005766 0.00000414 0.0
-0.00006185 0.00000426 0.0
-0.00006614 0.00000436 0.0
-0.00007052 0.00000445 0.0
-0.00007498 0.00000453 0.0
-0.00007949 0.00000460 0.0
-0.00008406 0.00000465 0.0
-0.00008866 0.00000469 0.0
-0.00009327 0.00000471 0.0
-0.00009789 0.00000472 0.0
-0.00010249 0.00000470 0.0
-0.00010705 0.00000466 0.0
-0.00011155 0.00000460 0.0
-0.00011597 0.00000452 0.0
-0.00012029 0.00000441 0.0
-0.00012448 0.00000428 0.0
-0.00012851 0.00000412 0.0
-0.00013238 0.00000393 0.0
-0.00013604 0.00000372 0.0
-0.00013948 0.00000349 0.0
-0.00014267 0.00000322 0.0
-0.00014558 0.00000293 0.0
-0.00014820 0.00000262 0.0
-0.00015049 0.00000228 0.0
-0.00015245 0.00000191 0.0
-0.00015404 0.00000153 0.0
-0.00015525 0.00000112 0.0
-0.00015605 0.00000069 0.0
-0.00015644 0.00000025 0.0
-0.00015641 -0.00000021 0.0
-0.00015593 -0.00000068 0.0
-0.00015500 -0.00000116 0.0
-0.00015362 -0.00000165 0.0
-0.00015178 -0.00000214 0.0
-0.00014948 -0.00000262 0.0
-0.00014673 -0.00000311 0.0
-0.00014353 -0.00000358 0.0
-0.00013990 -0.00000404 0.0
-0.00013584 -0.00000449 0.0
-0.00013137 -0.00000492 0.0
-0.00012652 -0.00000532 0.0
-0.00012130 -0.00000570 0.0
-0.00011575 -0.00000605 0.0
-0.00010988 -0.00000637 0.0
-0.00010375 -0.00000665 0.0
-0.00009737 -0.00000689 0.0
-0.00009079 -0.00000709 0.0
-0.00008404 -0.00000725 0.0
-0.00007717 -0.00000736 0.0
-0.00007022 -0.00000742 0.0
-0.00006322 -0.00000744 0.0
-0.00005623 -0.00000741 0.0
-0.00004928 -0.00000734 0.0
-0.00004242 -0.00000722 0.0
-0.00003569 -0.00000705 0.0
-0.00002913 -0.00000685 0.0
-0.00002277 -0.00000660 0.0
-0.00001666 -0.00000631 0.0
-0.00001082 -0.00000599 0.0
-0.00000529 -0.00000564 0.0
-0.00000009 -0.00000526 0.0
0.00000475 -0.00000485 0.0
0.00000920 -0.00000443 0.0
0.00001325 -0.00000399 0.0
0.00001689 -0.00000353 0.0
0.00002011 -0.00000307 0.0
0.00002290 -0.00000260 0.0
0.00002525 -0.00000214 0.0
0.00002717 -0.00000168 0.0
0.00002866 -0.00000122 0.0
0.00002973 -0.00000078 0.0
0.00003040 -0.00000035 0.0
0.00003066 0.00000006 0.0
0.00003055 0.00000045 0.0
0.00003007 0.00000082 0.0
0.00002926 0.00000117 0.0
0.00002813 0.00000148 0.0
0.00002671 0.00000177 0.0
0.00002504 0.00000202 0.0
0.00002313 0.00000224 0.0
0.00002104 0.00000242 0.0
0.00001880 0.00000255 0.0
0.00001645 0.00000263 0.0
0.00001404 0.00000266 0.0
0.00001162 0.00000262 0.0
0.00000927 0.00000252 0.0
0.00000703 0.00000233 0.0
0.00000499 0.00000204 0.0
0.00000322 0.00000167 0.0
0.00000179 0.00000120 0.0
0.00000077 0.00000067 0.0
0.00000018 0.00000019 0.0
0.00000000 0.00000000 0.0
0.00000000 0.00000000 0.0
0.00000019 -0.00000067 0.0
0.00000063 -0.00000111 0.0
0.00000119 -0.00000132 0.0
0.00000176 -0.00000133 0.0
0.00000226 -0.00000119 0.0
0.00000262 -0.00000094 0.0
0.00000280 -0.00000061 0.0
0.00000275 -0.00000022 0.0
0.00000246 0.00000019 0.0
0.00000191 0.00000063 0.0
0.00000109 0.00000107 0.0
-0.00000000 0.00000151 0.0
-0.00000136 0.00000193 0.0
-0.00000299 0.00000235 0.0
-0.00000487 0.00000276 0.0
-0.00000701 0.00000315 0.0
-0.00000939 0.00000353 0.0
-0.00001202 0.00000390 0.0
-0.00001488 0.00000426 0.0
-0.00001797 0.00000461 0.0
-0.00002128 0.00000496 0.0
-0.00002482 0.00000530 0.0
-0.00002857 0.00000563 0.0
-0.00003254 0.00000597 0.0
-0.00003672 0.00000629 0.0
-0.00004110 0.00000662 0.0
-0.00004570 0.00000694 0.0
-0.00005050 0.00000726 0.0
-0.00005550 0.00000757 0.0
-0.00006069 0.00000788 0.0
-0.00006608 0.00000818 0.0
-0.00007164 0.00000847 0.0
-0.00007738 0.00000875 0.0
-0.00008329 0.00000902 0.0
-0.00008935 0.00000927 0.0
-0.00009555 0.00000950 0.0
-0.00010188 0.00000971 0.0
-0.00010833 0.00000990 0.0
-0.00011487 0.00001006 0.0
-0.00012148 0.00001019 0.0
-0.00012816 0.00001029 0.0
-0.00013486 0.00001035 0.0
-0.00014158 0.00001038 0.0
-0.00014829 0.00001036 0.0
-0.00015494 0.00001031 0.0
-0.00016153 0.00001020 0.0
-0.00016801 0.00001005 0.0
-0.00017436 0.00000985 0.0
-0.00018054 0.00000959 0.0
-0.00018652 0.00000928 0.0
-0.00019226 0.00000892 0.0
-0.00019774 0.00000850 0.0
-0.00020291 0.00000802 0.0
-0.00020775 0.00000749 0.0
-0.00021221 0.00000690 0.0
-0.00021627 0.00000625 0.0
-0.00021989 0.00000555 0.0
-0.00022304 0.00000480 0.0
-0.00022570 0.00000400 0.0
-0.00022783 0.00000316 0.0
-0.00022940 0.00000227 0.0
-0.00023040 0.00000134 0.0
-0.00023081 0.00000038 0.0
-0.00023061 -0.00000061 0.0
-0.00022977 -0.00000162 0.0
-0.00022831 -0.00000266 0.0
-0.00022620 -0.00000370 0.0
-0.00022344 -0.00000474 0.0
-0.00022005 -0.00000578 0.0
-0.00021601 -0.00000681 0.0
-0.00021135 -0.00000782 0.0
-0.00020608 -0.00000881 0.0
-0.00020022 -0.00000976 0.0
-0.00019379 -0.00001067 0.0
-0.00018683 -0.00001153 0.0
-0.00017936 -0.00001233 0.0
-0.00017142 -0.00001307 0.0
-0.00016306 -0.00001374 0.0
-0.00015431 -0.00001433 0.0
-0.00014523 -0.00001484 0.0
-0.00013586 -0.00001527 0.0
-0.00012627 -0.00001560 0.0
-0.00011649 -0.00001584 0.0
-0.00010660 -0.00001598 0.0
-0.00009665 -0.00001602 0.0
-0.00008670 -0.00001597 0.0
-0.00007680 -0.00001582 0.0
-0.00006702 -0.00001557 0.0
-0.00005741 -0.00001523 0.0
-0.00004803 -0.00001480 0.0
-0.00003892 -0.00001428 0.0
-0.00003015 -0.00001368 0.0
-0.00002175 -0.00001301 0.0
-0.00001377 -0.00001227 0.0
-0.00000625 -0.00001147 0.0
0.00000078 -0.00001062 0.0
0.00000728 -0.00000972 0.0
0.00001323 -0.00000879 0.0
0.00001861 -0.00000783 0.0
0.00002340 -0.00000685 0.0
0.00002759 -0.00000586 0.0
0.00003118 -0.00000487 0.0
0.00003417 -0.00000388 0.0
0.00003655 -0.00000291 0.0
0.00003834 -0.00000196 0.0
0.00003955 -0.00000104 0.0
0.00004020 -0.00000015 0.0
0.00004032 0.00000069 0.0
0.00003992 0.00000149 0.0
0.00003904 0.00000223 0.0
0.00003771 0.00000292 0.0
0.00003596 0.00000354 0.0
0.00003384 0.00000409 0.0
0.00003140 0.00000456 0.0
0.00002868 0.00000495 0.0
0.00002574 0.00000524 0.0
0.00002264 0.00000543 0.0
0.00001945 0.00000550 0.0
0.00001624 0.00000544 0.0
0.00001308 0.00000523 0.0
0.00001007 0.00000486 0.0
0.00000729 0.00000431 0.0
0.00000485 0.00000358 0.0
0.00000282 0.00000268 0.0
0.00000131 0.00000168 0.0
0.00000035 0.00000069 0.0
0.00000000 0.00000000 0.0
0.00000000 0.00000000 0.0
0.00000020 -0.00000103 0.0
0.00000065 -0.00000165 0.0
0.00000118 -0.00000192 0.0
0.00000169 -0.00000188 0.0
0.00000208 -0.00000162 0.0
0.00000228 -0.00000117 0.0
0.00000224 -0.00000061 0.0
0.00000191 0.00000005 0.0
0.00000127 0.00000075 0.0
0.00000031 0.00000149 0.0
-0.00000100 0.00000223 0.0
-0.00000264 0.00000297 0.0
-0.00000463 0.00000371 0.0
-0.00000695 0.00000443 0.0
-0.00000960 0.00000512 0.0
-0.00001257 0.00000580 0.0
-0.00001586 0.00000646 0.0
-0.00001947 0.00000711 0.0
-0.00002337 0.00000773 0.0
-0.00002757 0.00000835 0.0
-0.00003206 0.00000895 0.0
-0.00003684 0.00000954 0.0
-0.00004190 0.00001013 0.0
-0.00004724 0.00001071 0.0
-0.00005286 0.00001128 0.0
-0.00005874 0.00001184 0.0
-0.00006489 0.00001240 0.0
-0.00007129 0.00001295 0.0
-0.00007796 0.00001348 0.0
-0.00008487 0.00001401 0.0
-0.00009201 0.00001452 0.0
-0.00009939 0.00001501 0.0
-0.00010698 0.00001549 0.0
-0.00011478 0.00001593 0.0
-0.00012276 0.00001635 0.0
-0.00013091 0.00001673 0.0
-0.00013922 0.00001708 0.0
-0.00014766 0.00001738 0.0
-0.00015620 0.00001763 0.0
-0.00016482 0.00001783 0.0
-0.00017350 0.00001798 0.0
-0.00018221 0.00001806 0.0
-0.00019090 0.00001807 0.0
-0.00019956 0.00001802 0.0
-0.00020813 0.00001788 0.0
-0.00021659 0.00001767 0.0
-0.00022489 0.00001737 0.0
-0.00023301 0.00001699 0.0
-0.00024088 0.00001651 0.0
-0.00024847 0.00001595 0.0
-0.00025575 0.00001529 0.0
-0.00026266 0.00001453 0.0
-0.00026917 0.00001368 0.0
-0.00027522 0.00001273 0.0
-0.00028078 0.00001169 0.0
-0.00028582 0.00001056 0.0
-0.00029028 0.00000934 0.0
-0.00029413 0.00000803 0.0
-0.00029733 0.00000664 0.0
-0.00029986 0.00000517 0.0
-0.00030169 0.00000364 0.0
-0.00030278 0.00000204 0.0
-0.00030311 0.00000039 0.0
-0.00030267 -0.00000131 0.0
-0.00030144 -0.00000304 0.0
-0.00029940 -0.00000480 0.0
-0.00029656 -0.00000657 0.0
-0.00029291 -0.00000834 0.0
-0.00028846 -0.00001011 0.0
-0.00028322 -0.00001185 0.0
-0.00027719 -0.00001357 0.0
-0.00027041 -0.00001523 0.0
-0.00026289 -0.00001683 0.0
-0.00025467 -0.00001837 0.0
-0.00024578 -0.00001981 0.0
-0.00023627 -0.00002116 0.0
-0.00022618 -0.00002241 0.0
-0.00021556 -0.00002353 0.0
-0.00020446 -0.00002453 0.0
-0.00019295 -0.00002539 0.0
-0.00018109 -0.00002611 0.0
-0.00016894 -0.00002667 0.0
-0.00015656 -0.00002707 0.0
-0.00014404 -0.00002732 0.0
-0.00013143 -0.00002740 0.0
-0.00011881 -0.00002732 0.0
-0.00010626 -0.00002708 0.0
-0.00009383 -0.00002667 0.0
-0.00008161 -0.00002611 0.0
-0.00006966 -0.00002540 0.0
-0.00005804 -0.00002454 0.0
-0.00004681 -0.00002355 0.0
-0.00003605 -0.00002243 0.0
-0.00002579 -0.00002120 0.0
-0.00001609 -0.00001986 0.0
-0.00000699 -0.00001844 0.0
0.00000147 -0.00001694 0.0
0.00000925 -0.00001537 0.0
0.00001633 -0.00001376 0.0
0.00002268 -0.00001211 0.0
0.00002829 -0.00001044 0.0
0.00003315 -0.00000877 0.0
0.00003726 -0.00000710 0.0
0.00004063 -0.00000546 0.0
0.00004325 -0.00000384 0.0
0.00004514 -0.00000227 0.0
0.00004633 -0.00000076 0.0
0.00004684 0.00000068 0.0
0.00004670 0.00000205 0.0
0.00004594 0.00000333 0.0
0.00004462 0.00000451 0.0
0.00004276 0.00000558 0.0
0.00004043 0.00000653 0.0
0.00003768 0.00000734 0.0
0.00003457 0.00000802 0.0
0.00003117 0.00000853 0.0
0.00002756 0.00000887 0.0
0.00002380 0.00000901 0.0
0.00002000 0.00000894 0.0
0.00001625 0.00000862 0.0
0.00001264 0.00000805 0.0
0.00000928 0.00000720 0.0
0.00000628 0.00000608 0.0
0.00000374 0.00000468 0.0
0.00000178 0.00000309 0.0
0.00000050 0.00000144 0.0
0.00000000 0.00000000 0.0
0.00000000 0.00000000 0.0
0.00000019 -0.00000137 0.0
0.00000058 -0.00000215 0.0
0.00000101 -0.00000242 0.0
0.00000136 -0.00000229 0.0
0.00000154 -0.00000184 0.0
0.00000147 -0.00000116 0.0
0.00000110 -0.00000030 0.0
0.00000038 0.00000069 0.0
-0.00000071 0.00000174 0.0
-0.00000219 0.00000284 0.0
-0.00000407 0.00000396 0.0
-0.00000636 0.00000508 0.0
-0.00000905 0.00000618 0.0
-0.00001214 0.00000726 0.0
-0.00001563 0.00000832 0.0
-0.00001950 0.00000936 0.0
-0.00002376 0.00001036 0.0
-0.00002839 0.00001135 0.0
-0.00003338 0.00001231 0.0
-0.00003874 0.00001325 0.0
-0.00004444 0.00001417 0.0
-0.00005050 0.00001508 0.0
-0.00005690 0.00001598 0.0
-0.00006364 0.00001686 0.0
-0.00007070 0.00001773 0.0
-0.00007810 0.00001860 0.0
-0.00008580 0.00001944 0.0
-0.00009382 0.00002027 0.0
-0.00010215 0.00002109 0.0
-0.00011076 0.00002188 0.0
-0.00011966 0.00002264 0.0
-0.00012882 0.00002338 0.0
-0.00013824 0.00002408 0.0
-0.00014789 0.00002473 0.0
-0.00015775 0.00002535 0.0
-0.00016780 0.00002590 0.0
-0.00017802 0.00002639 0.0
-0.00018838 0.00002682 0.0
-0.00019885 0.00002717 0.0
-0.00020939 0.00002744 0.0
-0.00021998 0.00002761 0.0
-0.00023057 0.00002769 0.0
-0.00024113 0.00002767 0.0
-0.00025161 0.00002753 0.0
-0.00026198 0.00002728 0.0
-0.00027217 0.00002691 0.0
-0.00028216 0.00002641 0.0
-0.00029189 0.00002578 0.0
-0.00030130 0.00002501 0.0
-0.00031036 0.00002410 0.0
-0.00031901 0.00002305 0.0
-0.00032720 0.00002186 0.0
-0.00033487 0.00002053 0.0
-0.00034199 0.00001905 0.0
-0.00034851 0.00001744 0.0
-0.00035436 0.00001569 0.0
-0.00035953 0.00001381 0.0
-0.00036395 0.00001181 0.0
-0.00036759 0.00000969 0.0
-0.00037041 0.00000746 0.0
-0.00037239 0.00000513 0.0
-0.00037349 0.00000271 0.0
-0.00037369 0.00000021 0.0
-0.00037297 -0.00000234 0.0
-0.00037131 -0.00000495 0.0
-0.00036870 -0.00000759 0.0
-0.00036514 -0.00001024 0.0
-0.00036064 -0.00001290 0.0
-0.00035519 -0.00001554 0.0
-0.00034881 -0.00001814 0.0
-0.00034152 -0.00002069 0.0
-0.00033334 -0.00002317 0.0
-0.00032430 -0.00002555 0.0
-0.00031445 -0.00002783 0.0
-0.00030382 -0.00002998 0.0
-0.00029246 -0.00003199 0.0
-0.00028043 -0.00003384 0.0
-0.00026778 -0.00003551 0.0
-0.00025457 -0.00003699 0.0
-0.00024088 -0.00003827 0.0
-0.00022677 -0.00003934 0.0
-0.00021232 -0.00004018 0.0
-0.00019760 -0.00004079 0.0
-0.00018270 -0.00004117 0.0
-0.00016770 -0.00004130 0.0
-0.00015267 -0.00004120 0.0
-0.00013770 -0.00004085 0.0
-0.00012287 -0.00004027 0.0
-0.00010826 -0.00003946 0.0
-0.00009395 -0.00003843 0.0
-0.00008001 -0.00003718 0.0
-0.00006652 -0.00003573 0.0
-0.00005354 -0.00003410 0.0
-0.00004114 -0.00003229 0.0
-0.00002938 -0.00003033 0.0
-0.00001830 -0.00002823 0.0
-0.00000796 -0.00002601 0.0
0.00000160 -0.00002370 0.0
0.00001035 -0.00002131 0.0